TITLE="results for TO code"
VARIABLES = "x", "y", "z", "density", "sigmaxx", "sigmayy", "sigmazz", "sigmaxy", "sigmaxz", "sigmayz"
ZONE T="load step 0", NODES= 189, ELEMENTS= 80, DATAPACKING=POINT, ZONETYPE=FEBRICK
               0.00000000                0.00000000                0.00000000                1.00000000               -0.00000000               -0.00000000                0.99655334                0.00000000                0.37422650                0.39072330
               5.00000000                0.00000000                0.00000000                1.00000000                0.00000000                0.00000000               -0.00000000               -0.00000000               -0.06503391               -0.00000000
              10.00000000                0.00000000                0.00000000                1.00000000               -0.00000000               -0.00000000               -0.99655334                0.00000000                0.37422650               -0.39072330
               0.00000000                5.00000000                0.00000000                1.00000000               -0.00000000                0.00000000                0.10245658               -0.00000000                0.35960721               -0.00591780
               5.00000000                5.00000000                0.00000000                1.00000000                0.00000000               -0.00000000               -0.00000000                0.00000000                0.17084323               -0.00000000
              10.00000000                5.00000000                0.00000000                1.00000000               -0.00000000               -0.00000000               -0.10245658               -0.00000000                0.35960721                0.00591780
               0.00000000               10.00000000                0.00000000                1.00000000                0.00000000                0.00000000                0.98533318                0.00000000                0.38479303               -0.39844307
               5.00000000               10.00000000                0.00000000                1.00000000               -0.00000000               -0.00000000               -0.00000000               -0.00000000               -0.05806629               -0.00000000
              10.00000000               10.00000000                0.00000000                1.00000000               -0.00000000                0.00000000               -0.98533318                0.00000000                0.38479303                0.39844307
               0.00000000                0.00000000                5.00000000                1.00000000               -0.43926041               -0.39664110                1.54991910               -0.40534259                0.17798669               -0.52738681
               5.00000000                0.00000000                5.00000000                0.00010000                0.00000000                0.00000000               -0.00000000               -0.15484616               -0.08921394               -0.00000000
              10.00000000                0.00000000                5.00000000                1.00000000                0.43926041                0.39664110               -1.54991910               -0.40534259                0.17798669                0.52738681
               0.00000000                5.00000000                5.00000000                0.00010000               -0.18876397               -0.39458318                1.55213296                0.01120106                1.46054153               -0.03584122
               5.00000000                5.00000000                5.00000000                0.00010000               -0.00000000                0.00000000               -0.00000000                0.00940161                1.07831394               -0.00000000
              10.00000000                5.00000000                5.00000000                0.00010000                0.18876397                0.39458318               -1.55213296                0.01120106                1.46054153                0.03584122
               0.00000000               10.00000000                5.00000000                0.95678483               -0.44285931               -0.39252527                1.50861848                0.42362889                0.25609629                0.48273883
               5.00000000               10.00000000                5.00000000                0.00010000               -0.00000000               -0.00000000               -0.00000000                0.16953355                0.01981504               -0.00000000
              10.00000000               10.00000000                5.00000000                0.95678483                0.44285931                0.39252527               -1.50861848                0.42362889                0.25609629               -0.48273883
               0.00000000                0.00000000               10.00000000                1.00000000               -0.53440127               -0.79388217                2.30451066                0.04349629                0.07482926                0.09593248
               5.00000000                0.00000000               10.00000000                0.00010000                0.00000000                0.00000000               -0.00000000               -0.18655763               -0.01416263               -0.00000000
              10.00000000                0.00000000               10.00000000                1.00000000                0.53440127                0.79388217               -2.30451066                0.04349629                0.07482926               -0.09593248
               0.00000000                5.00000000               10.00000000                0.00010000               -0.76445518               -0.76684772                2.59231416                0.12735171                0.35490365               -0.13902222
               5.00000000                5.00000000               10.00000000                0.00010000                0.00000000                0.00000000               -0.00000000                0.15827110                0.27430561               -0.00000000
              10.00000000                5.00000000               10.00000000                0.00010000                0.76445518                0.76684772               -2.59231416                0.12735171                0.35490365                0.13902222
               0.00000000               10.00000000               10.00000000                1.00000000               -0.47256250               -0.73981327                1.96090875                0.15713824                0.25292913               -0.23793271
               5.00000000               10.00000000               10.00000000                0.00010000                0.00000000               -0.00000000                0.00000000                0.44903092                0.28946846               -0.00000000
              10.00000000               10.00000000               10.00000000                1.00000000                0.47256250                0.73981327               -1.96090875                0.15713824                0.25292913                0.23793271
               0.00000000                0.00000000               15.00000000                1.00000000               -0.61724419               -0.77509379                2.63952538               -0.01934786               -0.05788515               -0.25095609
               5.00000000                0.00000000               15.00000000                0.00010000                0.00000000                0.00000000               -0.00000000                0.24793628               -0.10990656               -0.00000000
              10.00000000                0.00000000               15.00000000                1.00000000                0.61724419                0.77509379               -2.63952538               -0.01934786               -0.05788515                0.25095609
               0.00000000                5.00000000               15.00000000                0.00010000               -0.34996006               -0.63699167                2.09219116                0.30214288                0.10686249               -0.29633538
               5.00000000                5.00000000               15.00000000                0.00010000               -0.00000000               -0.00000000                0.00000000                0.42587465                0.15194189               -0.00000000
              10.00000000                5.00000000               15.00000000                0.00010000                0.34996006                0.63699167               -2.09219116                0.30214288                0.10686249                0.29633538
               0.00000000               10.00000000               15.00000000                1.00000000               -0.36978065               -0.49888955                1.66223769                0.34742937                0.44695636               -0.26531079
               5.00000000               10.00000000               15.00000000                0.00010000               -0.00000000               -0.00000000                0.00000000                0.32760877                0.52269381               -0.00000000
              10.00000000               10.00000000               15.00000000                1.00000000                0.36978065                0.49888955               -1.66223769                0.34742937                0.44695636                0.26531079
               0.00000000                0.00000000               20.00000000                1.00000000               -0.63844410               -0.82319629                2.70675238               -0.39905530               -0.29051599               -0.79049886
               5.00000000                0.00000000               20.00000000                0.00010000                0.00000000                0.00000000               -0.00000000               -0.43490757               -0.31045323               -0.00000000
              10.00000000                0.00000000               20.00000000                1.00000000                0.63844410                0.82319629               -2.70675238               -0.39905530               -0.29051599                0.79049886
               0.00000000                5.00000000               20.00000000                0.00010000               -0.67429636               -0.71975796                2.85601933               -0.17198397                1.03929464               -0.75360098
               5.00000000                5.00000000               20.00000000                0.00010000               -0.00000000               -0.00000000                0.00000000               -0.01330572                0.80079693               -0.00000000
              10.00000000                5.00000000               20.00000000                0.00010000                0.67429636                0.71975796               -2.85601933               -0.17198397                1.03929464                0.75360098
               0.00000000               10.00000000               20.00000000                1.00000000               -0.32108759               -0.61631962                2.42723383               -0.15178931                1.39097128               -1.03221926
               5.00000000               10.00000000               20.00000000                0.00010000               -0.00000000               -0.00000000                0.00000000                0.20141947                0.35064097               -0.00000000
              10.00000000               10.00000000               20.00000000                1.00000000                0.32108759                0.61631962               -2.42723383               -0.15178931                1.39097128                1.03221926
               0.00000000                0.00000000               25.00000000                1.00000000               -0.65711868               -0.84460286                2.82712422               -0.13969179               -0.00146250                0.11292108
               5.00000000                0.00000000               25.00000000                0.00010000                0.00000000                0.00000000               -0.00000000               -0.30952860               -0.03723694               -0.00000000
              10.00000000                0.00000000               25.00000000                1.00000000                0.65711868                0.84460286               -2.82712422               -0.13969179               -0.00146250               -0.11292108
               0.00000000                5.00000000               25.00000000                0.00010000               -0.82695548               -1.02201689                3.18678151               -0.58352116                0.18117238               -0.54504745
               5.00000000                5.00000000               25.00000000                0.00010000               -0.00000000               -0.00000000                0.00000000               -1.48018246                0.23470021               -0.00000000
              10.00000000                5.00000000               25.00000000                0.00010000                0.82695548                1.02201689               -3.18678151               -0.58352116                0.18117238                0.54504745
               0.00000000               10.00000000               25.00000000                0.00010000               -2.45044127               -1.19943091                3.24938559               -0.67252247                1.70419115               -1.20141496
               5.00000000               10.00000000               25.00000000                0.00010000               -0.00000000               -0.00000000                0.00000000               -2.29600827                1.75446583               -0.00000000
              10.00000000               10.00000000               25.00000000                0.00010000                2.45044127                1.19943091               -3.24938559               -0.67252247                1.70419115                1.20141496
               0.00000000                0.00000000               30.00000000                1.00000000               -0.70999297               -0.92158401                3.01727898               -0.33945119               -0.01416966               -0.18958174
               5.00000000                0.00000000               30.00000000                0.00010000                0.00000000                0.00000000               -0.00000000               -0.19669893               -0.03586101               -0.00000000
              10.00000000                0.00000000               30.00000000                1.00000000                0.70999297                0.92158401               -3.01727898               -0.33945119               -0.01416966                0.18958174
               0.00000000                5.00000000               30.00000000                0.00010000               -0.56724070               -0.81654465                2.71463568                0.10884240                0.50242608               -0.43075847
               5.00000000                5.00000000               30.00000000                0.00010000               -0.00000000               -0.00000000                0.00000000                0.35356977                0.59318487               -0.00000000
              10.00000000                5.00000000               30.00000000                0.00010000                0.56724070                0.81654465               -2.71463568                0.10884240                0.50242608                0.43075847
               0.00000000               10.00000000               30.00000000                1.00000000               -0.22053824               -0.71150529                2.10970048                0.34705729                1.05942586               -0.16695485
               5.00000000               10.00000000               30.00000000                0.00010000               -0.00000000               -0.00000000                0.00000000                0.69375975                2.04941100                0.00000000
              10.00000000               10.00000000               30.00000000                1.00000000                0.22053824                0.71150529               -2.10970048                0.34705729                1.05942586                0.16695485
               0.00000000                0.00000000               35.00000000                1.00000000               -0.70050138               -0.87615471                3.01246345               -0.21104143               -0.13932280                0.00845416
               5.00000000                0.00000000               35.00000000                0.00010000                0.00000000               -0.00000000               -0.00000000               -0.15597796               -0.13536634               -0.00000000
              10.00000000                0.00000000               35.00000000                1.00000000                0.70050138                0.87615471               -3.01246345               -0.21104143               -0.13932280               -0.00845416
               0.00000000                5.00000000               35.00000000                0.00010000               -0.64543790               -0.54858839                2.61223222               -1.03371652                1.12915816               -0.86819064
               5.00000000                5.00000000               35.00000000                0.00010000               -0.00000000               -0.00000000                0.00000000               -0.91870132                1.16956463               -0.00000000
              10.00000000                5.00000000               35.00000000                0.00010000                0.64543790                0.54858839               -2.61223222               -1.03371652                1.12915816                0.86819064
               0.00000000               10.00000000               35.00000000                0.00010000               -0.47047099               -0.22102206                2.81890621               -2.51152425                4.07674214               -1.91727318
               5.00000000               10.00000000               35.00000000                0.00010000               -0.00000000               -0.00000000               -0.00000000               -2.33655734                3.64744047               -0.00000000
              10.00000000               10.00000000               35.00000000                0.00010000                0.47047099                0.22102206               -2.81890621               -2.51152425                4.07674214                1.91727318
               0.00000000                0.00000000               40.00000000                1.00000000               -0.70208005               -0.85274047                2.95620385               -0.32036750               -0.35177434                0.07216476
               5.00000000                0.00000000               40.00000000                0.00010000                0.00000000                0.00000000               -0.00000000               -0.10471523               -0.32366178               -0.00000000
              10.00000000                0.00000000               40.00000000                1.00000000                0.70208005                0.85274047               -2.95620385               -0.32036750               -0.35177434               -0.07216476
               0.00000000                5.00000000               40.00000000                0.00010000               -0.48642777               -0.92013886                2.29956215               -0.08394757                2.06901582                0.48913674
               5.00000000                5.00000000               40.00000000                0.00010000               -0.00000000                0.00000000                0.00000000               -0.27247834                2.13313507               -0.00000000
              10.00000000                5.00000000               40.00000000                0.00010000                0.48642777                0.92013886               -2.29956215               -0.08394757                2.06901582               -0.48913674
               0.00000000               10.00000000               40.00000000                0.62306189               -1.07914158               -0.98753724                3.17378390                0.28726914                2.67037230                0.32757609
               5.00000000               10.00000000               40.00000000                0.00010000                0.00000000                0.00000000               -0.00000000               -0.30544467                3.72473917               -0.00000000
              10.00000000               10.00000000               40.00000000                0.62306189                1.07914158                0.98753724               -3.17378390                0.28726914                2.67037230               -0.32757609
               0.00000000                0.00000000               45.00000000                1.00000000               -0.64427627               -0.80521959                2.78277871               -0.19934511               -0.64739656                0.01583699
               5.00000000                0.00000000               45.00000000                0.00010000                0.00000000                0.00000000               -0.00000000               -0.07226824               -0.59889384               -0.00000000
              10.00000000                0.00000000               45.00000000                1.00000000                0.64427627                0.80521959               -2.78277871               -0.19934511               -0.64739656               -0.01583699
               0.00000000                5.00000000               45.00000000                0.00010000               -0.51719940               -1.05618589                2.15937904               -2.14938018                3.29096395                0.69359605
               5.00000000                5.00000000               45.00000000                0.00010000               -0.00000000                0.00000000                0.00000000               -1.00811066                3.32070664               -0.00000000
              10.00000000                5.00000000               45.00000000                0.00010000                0.51719940                1.05618589               -2.15937904               -2.14938018                3.29096395               -0.69359605
               0.00000000               10.00000000               45.00000000                0.00010000                1.63826276               -1.30715218                3.25907172               -3.59748265                5.84385013                1.24274887
               5.00000000               10.00000000               45.00000000                0.00010000               -0.00000000                0.00000000                0.00000000               -1.44202049                5.69429188               -0.00000000
              10.00000000               10.00000000               45.00000000                0.00010000               -1.63826276                1.30715218               -3.25907172               -3.59748265                5.84385013               -1.24274887
               0.00000000                0.00000000               50.00000000                1.00000000               -0.60507459               -0.73681610                2.56202753               -0.22942397               -0.87985903                0.18347998
               5.00000000                0.00000000               50.00000000                0.00010000                0.00000000                0.00000000               -0.00000000               -0.05129177               -0.82327085               -0.00000000
              10.00000000                0.00000000               50.00000000                1.00000000                0.60507459                0.73681610               -2.56202753               -0.22942397               -0.87985903               -0.18347998
               0.00000000                5.00000000               50.00000000                0.00010000               -0.42694240               -0.93282074                1.97586702               -0.25480897                4.15957656                2.35862311
               5.00000000                5.00000000               50.00000000                0.00010000               -0.00000000               -0.00000000                0.00000000               -0.64140072                4.19676423               -0.00000000
              10.00000000                5.00000000               50.00000000                0.00010000                0.42694240                0.93282074               -1.97586702               -0.25480897                4.15957656               -2.35862311
               0.00000000               10.00000000               50.00000000                0.40374323               -1.37825809               -1.12882537                3.64178696                0.11181529                5.88383690                4.41320984
               5.00000000               10.00000000               50.00000000                0.00010000               -0.00000000               -0.00000000                0.00000000               -0.83950040                5.76636272               -0.00000000
              10.00000000               10.00000000               50.00000000                0.40374323                1.37825809                1.12882537               -3.64178696                0.11181529                5.88383690               -4.41320984
               0.00000000                0.00000000               55.00000000                1.00000000               -0.53109991               -0.66412683                2.28620956               -0.16018570               -1.12952356                0.00125662
               5.00000000                0.00000000               55.00000000                0.00010000                0.00000000               -0.00000000               -0.00000000               -0.07190985               -1.06415654               -0.00000000
              10.00000000                0.00000000               55.00000000                1.00000000                0.53109991                0.66412683               -2.28620956               -0.16018570               -1.12952356               -0.00125662
               0.00000000                5.00000000               55.00000000                0.00010000               -0.44282407               -1.03564954                1.90583942               -1.35729526                5.13183843                2.94491936
               5.00000000                5.00000000               55.00000000                0.00010000               -0.00000000               -0.00000000                0.00000000               -0.39008810                5.13653555               -0.00000000
              10.00000000                5.00000000               55.00000000                0.00010000                0.44282407                1.03564954               -1.90583942               -1.35729526                5.13183843               -2.94491936
               0.00000000               10.00000000               55.00000000                0.00010000                1.40331441               -1.40717224                2.71800285               -1.81135943                5.96584360                6.00587756
               5.00000000               10.00000000               55.00000000                0.00010000               -0.00000000               -0.00000000                0.00000000                0.03477905                6.16445771               -0.00000000
              10.00000000               10.00000000               55.00000000                0.00010000               -1.40331441                1.40717224               -2.71800285               -1.81135943                5.96584360               -6.00587756
               0.00000000                0.00000000               60.00000000                1.00000000               -0.47434057               -0.59324527                1.99430335               -0.15260079               -1.21590671                0.21641405
               5.00000000                0.00000000               60.00000000                0.00010000                0.00000000                0.00000000               -0.00000000               -0.09580838               -1.13741631               -0.00000000
              10.00000000                0.00000000               60.00000000                1.00000000                0.47434057                0.59324527               -1.99430335               -0.15260079               -1.21590671               -0.21641405
               0.00000000                5.00000000               60.00000000                0.00010000               -0.41754816               -0.67195445                1.81420889               -0.00515880                5.38894396                3.60355233
               5.00000000                5.00000000               60.00000000                0.00010000               -0.00000000               -0.00000000                0.00000000               -0.25850344                5.42254858               -0.00000000
              10.00000000                5.00000000               60.00000000                0.00010000                0.41754816                0.67195445               -1.81420889               -0.00515880                5.38894396               -3.60355233