# vtk DataFile Version 5.1
vtk output
ASCII
DATASET UNSTRUCTURED_GRID
POINTS 16611 float

0 0 0 0.091291 0 0 0.182939 0 0 
0.275172 0 0 0.368406 0 0 0.462652 0 0 
0.558193 0 0 0.654778 0 0 0.752347 0 0 
0.85056 0 0 0.949034 0 0 1.04776 0 0 
1.14634 0 0 1.24506 0 0 1.34359 0 0 
1.44277 0 0 1.5417 0 0 1.56988 0 0 
1.59657 0 0 1.62171 0 0 1.64647 0 0 
1.67069 0 0 1.69483 0 0 1.71881 0 0 
1.74309 0 0 1.7677 0 0 1.79338 0 0 
1.82047 0 0 1.84997 0 0 1.88279 0 0 
1.91993 0 0 1.96276 0 0 2.01157 0 0 
2.06659 0 0 2.12595 0 0 2.18769 0 0 
2.25003 0 0 2.31251 0 0 2.375 0 0 
2.4375 0 0 2.5 0 0 2.5625 0 0 
2.625 0 0 2.6875 0 0 2.75 0 0 
2.8125 0 0 2.875 0 0 2.9375 0 0 
3 0 0 3.0625 0 0 3.125 0 0 
3.1875 0 0 3.25 0 0 3.3125 0 0 
3.375 0 0 3.4375 0 0 3.5 0 0 
3.5625 0 0 3.625 0 0 3.6875 0 0 
3.75 0 0 3.8125 0 0 3.875 0 0 
3.9375 0 0 4 0 0 4.0625 0 0 
4.125 0 0 4.1875 0 0 4.25 0 0 
4.3125 0 0 4.375 0 0 4.4375 0 0 
4.5 0 0 4.5625 0 0 4.625 0 0 
4.6875 0 0 4.75 0 0 4.8125 0 0 
4.875 0 0 4.9375 0 0 5 0 0 
5.0625 0 0 5.125 0 0 5.1875 0 0 
5.25 0 0 5.3125 0 0 5.375 0 0 
5.4375 0 0 5.5 0 0 5.5625 0 0 
5.625 0 0 5.6875 0 0 5.75 0 0 
5.8125 0 0 5.875 0 0 5.9375 0 0 
6 0 0 6.0625 0 0 6.125 0 0 
6.1875 0 0 6.25 0 0 6.3125 0 0 
6.375 0 0 6.4375 0 0 6.5 0 0 
6.5625 0 0 6.625 0 0 6.6875 0 0 
6.75 0 0 6.8125 0 0 6.875 0 0 
6.9375 0 0 7 0 0 0 0.062086 0 
0.091161 0.06207 0 0.182722 0.062113 0 0.274801 0.062113 0 
0.367997 0.062167 0 0.462076 0.062186 0 0.557625 0.062244 0 
0.654054 0.062288 0 0.751665 0.062337 0 0.849751 0.062402 0 
0.948288 0.062431 0 1.04694 0.062498 0 1.14554 0.062507 0 
1.24426 0.06253 0 1.34281 0.062429 0 1.44187 0.062338 0 
1.54044 0.062394 0 1.56848 0.062784 0 1.59516 0.063164 0 
1.62033 0.063298 0 1.64511 0.063487 0 1.66937 0.063606 0 
1.69361 0.063704 0 1.71768 0.063744 0 1.74212 0.063742 0 
1.76683 0.063695 0 1.79271 0.063602 0 1.81987 0.06349 0 
1.84958 0.063328 0 1.88243 0.063185 0 1.91979 0.06299 0 
1.96262 0.062857 0 2.0116 0.062684 0 2.06658 0.062599 0 
2.12598 0.062517 0 2.18768 0.062507 0 2.25003 0.0625 0 
2.31251 0.0625 0 2.375 0.0625 0 2.4375 0.0625 0 
2.5 0.0625 0 2.5625 0.0625 0 2.625 0.0625 0 
2.6875 0.0625 0 2.75 0.0625 0 2.8125 0.0625 0 
2.875 0.0625 0 2.9375 0.0625 0 3 0.0625 0 
3.0625 0.0625 0 3.125 0.0625 0 3.1875 0.0625 0 
3.25 0.0625 0 3.3125 0.0625 0 3.375 0.0625 0 
3.4375 0.0625 0 3.5 0.0625 0 3.5625 0.0625 0 
3.625 0.0625 0 3.6875 0.0625 0 3.75 0.0625 0 
3.8125 0.0625 0 3.875 0.0625 0 3.9375 0.0625 0 
4 0.0625 0 4.0625 0.0625 0 4.125 0.0625 0 
4.1875 0.0625 0 4.25 0.0625 0 4.3125 0.0625 0 
4.375 0.0625 0 4.4375 0.0625 0 4.5 0.0625 0 
4.5625 0.0625 0 4.625 0.0625 0 4.6875 0.0625 0 
4.75 0.0625 0 4.8125 0.0625 0 4.875 0.0625 0 
4.9375 0.0625 0 5 0.0625 0 5.0625 0.0625 0 
5.125 0.0625 0 5.1875 0.0625 0 5.25 0.0625 0 
5.3125 0.0625 0 5.375 0.0625 0 5.4375 0.0625 0 
5.5 0.0625 0 5.5625 0.0625 0 5.625 0.0625 0 
5.6875 0.0625 0 5.75 0.0625 0 5.8125 0.0625 0 
5.875 0.0625 0 5.9375 0.0625 0 6 0.0625 0 
6.0625 0.0625 0 6.125 0.0625 0 6.1875 0.0625 0 
6.25 0.0625 0 6.3125 0.0625 0 6.375 0.0625 0 
6.4375 0.0625 0 6.5 0.0625 0 6.5625 0.0625 0 
6.625 0.0625 0 6.6875 0.0625 0 6.75 0.0625 0 
6.8125 0.0625 0 6.875 0.0625 0 6.9375 0.0625 0 
7 0.0625 0 0 0.124416 0 0.090492 0.124422 0 
0.181325 0.12445 0 0.272865 0.124471 0 0.365341 0.124516 0 
0.459052 0.124558 0 0.553971 0.124624 0 0.650213 0.124696 0 
0.747364 0.124779 0 0.845387 0.124875 0 0.943646 0.124943 0 
1.04224 0.125052 0 1.14065 0.125104 0 1.23923 0.125099 0 
1.33781 0.12485 0 1.43688 0.124797 0 1.53538 0.124956 0 
1.56341 0.125414 0 1.59021 0.126033 0 1.61552 0.126354 0 
1.64046 0.126654 0 1.66491 0.126822 0 1.68933 0.126898 0 
1.71365 0.126913 0 1.73826 0.126825 0 1.76329 0.126714 0 
1.78931 0.126513 0 1.81688 0.126314 0 1.84669 0.126049 0 
1.88011 0.125813 0 1.91758 0.125549 0 1.96118 0.125341 0 
2.01041 0.125163 0 2.06613 0.12506 0 2.12577 0.125015 0 
2.18765 0.125002 0 2.25002 0.125001 0 2.3125 0.125 0 
2.375 0.125 0 2.4375 0.125 0 2.5 0.125 0 
2.5625 0.125 0 2.625 0.125 0 2.6875 0.125 0 
2.75 0.125 0 2.8125 0.125 0 2.875 0.125 0 
2.9375 0.125 0 3 0.125 0 3.0625 0.125 0 
3.125 0.125 0 3.1875 0.125 0 3.25 0.125 0 
3.3125 0.125 0 3.375 0.125 0 3.4375 0.125 0 
3.5 0.125 0 3.5625 0.125 0 3.625 0.125 0 
3.6875 0.125 0 3.75 0.125 0 3.8125 0.125 0 
3.875 0.125 0 3.9375 0.125 0 4 0.125 0 
4.0625 0.125 0 4.125 0.125 0 4.1875 0.125 0 
4.25 0.125 0 4.3125 0.125 0 4.375 0.125 0 
4.4375 0.125 0 4.5 0.125 0 4.5625 0.125 0 
4.625 0.125 0 4.6875 0.125 0 4.75 0.125 0 
4.8125 0.125 0 4.875 0.125 0 4.9375 0.125 0 
5 0.125 0 5.0625 0.125 0 5.125 0.125 0 
5.1875 0.125 0 5.25 0.125 0 5.3125 0.125 0 
5.375 0.125 0 5.4375 0.125 0 5.5 0.125 0 
5.5625 0.125 0 5.625 0.125 0 5.6875 0.125 0 
5.75 0.125 0 5.8125 0.125 0 5.875 0.125 0 
5.9375 0.125 0 6 0.125 0 6.0625 0.125 0 
6.125 0.125 0 6.1875 0.125 0 6.25 0.125 0 
6.3125 0.125 0 6.375 0.125 0 6.4375 0.125 0 
6.5 0.125 0 6.5625 0.125 0 6.625 0.125 0 
6.6875 0.125 0 6.75 0.125 0 6.8125 0.125 0 
6.875 0.125 0 6.9375 0.125 0 7 0.125 0 
0 0.186864 0 0.090808 0.18687 0 0.182033 0.1869 0 
0.273768 0.186922 0 0.366661 0.186971 0 0.460422 0.187023 0 
0.555716 0.187098 0 0.651882 0.187194 0 0.749307 0.187298 0 
0.847209 0.187432 0 0.945602 0.187528 0 1.04409 0.187692 0 
1.14254 0.187775 0 1.24102 0.187831 0 1.33917 0.18749 0 
1.43764 0.187533 0 1.53557 0.187791 0 1.56353 0.188209 0 
1.59032 0.188654 0 1.61572 0.188981 0 1.64083 0.189246 0 
1.66547 0.189386 0 1.6901 0.189433 0 1.71457 0.189413 0 
1.73938 0.189309 0 1.76444 0.18917 0 1.79065 0.188962 0 
1.81811 0.188747 0 1.84814 0.188482 0 1.88126 0.188247 0 
1.91894 0.187993 0 1.96202 0.187805 0 2.01127 0.18764 0 
2.06642 0.187557 0 2.12593 0.187512 0 2.18767 0.187503 0 
2.25003 0.1875 0 2.31251 0.1875 0 2.375 0.1875 0 
2.4375 0.1875 0 2.5 0.1875 0 2.5625 0.1875 0 
2.625 0.1875 0 2.6875 0.1875 0 2.75 0.1875 0 
2.8125 0.1875 0 2.875 0.1875 0 2.9375 0.1875 0 
3 0.1875 0 3.0625 0.1875 0 3.125 0.1875 0 
3.1875 0.1875 0 3.25 0.1875 0 3.3125 0.1875 0 
3.375 0.1875 0 3.4375 0.1875 0 3.5 0.1875 0 
3.5625 0.1875 0 3.625 0.1875 0 3.6875 0.1875 0 
3.75 0.1875 0 3.8125 0.1875 0 3.875 0.1875 0 
3.9375 0.1875 0 4 0.1875 0 4.0625 0.1875 0 
4.125 0.1875 0 4.1875 0.1875 0 4.25 0.1875 0 
4.3125 0.1875 0 4.375 0.1875 0 4.4375 0.1875 0 
4.5 0.1875 0 4.5625 0.1875 0 4.625 0.1875 0 
4.6875 0.1875 0 4.75 0.1875 0 4.8125 0.1875 0 
4.875 0.1875 0 4.9375 0.1875 0 5 0.1875 0 
5.0625 0.1875 0 5.125 0.1875 0 5.1875 0.1875 0 
5.25 0.1875 0 5.3125 0.1875 0 5.375 0.1875 0 
5.4375 0.1875 0 5.5 0.1875 0 5.5625 0.1875 0 
5.625 0.1875 0 5.6875 0.1875 0 5.75 0.1875 0 
5.8125 0.1875 0 5.875 0.1875 0 5.9375 0.1875 0 
6 0.1875 0 6.0625 0.1875 0 6.125 0.1875 0 
6.1875 0.1875 0 6.25 0.1875 0 6.3125 0.1875 0 
6.375 0.1875 0 6.4375 0.1875 0 6.5 0.1875 0 
6.5625 0.1875 0 6.625 0.1875 0 6.6875 0.1875 0 
6.75 0.1875 0 6.8125 0.1875 0 6.875 0.1875 0 
6.9375 0.1875 0 7 0.1875 0 0 0.249382 0 
0.090292 0.249392 0 0.180919 0.249419 0 0.272271 0.249448 0 
0.364542 0.249495 0 0.458079 0.249565 0 0.552801 0.249644 0 
0.648892 0.249775 0 0.745871 0.249893 0 0.843768 0.250082 0 
0.941837 0.250211 0 1.04025 0.25044 0 1.13846 0.250537 0 
1.23687 0.250692 0 1.33512 0.250349 0 1.43368 0.250467 0 
1.53196 0.250623 0 1.56013 0.250782 0 1.58713 0.250999 0 
1.61269 0.251231 0 1.63792 0.251428 0 1.66265 0.251571 0 
1.68732 0.251631 0 1.71185 0.251634 0 1.73665 0.251557 0 
1.76185 0.251446 0 1.78801 0.251266 0 1.81574 0.251082 0 
1.84568 0.250848 0 1.87927 0.250642 0 1.91689 0.250418 0 
1.96069 0.250255 0 2.01008 0.250114 0 2.06598 0.250045 0 
2.12572 0.250009 0 2.18764 0.250002 0 2.25002 0.25 0 
2.3125 0.25 0 2.375 0.25 0 2.4375 0.25 0 
2.5 0.25 0 2.5625 0.25 0 2.625 0.25 0 
2.6875 0.25 0 2.75 0.25 0 2.8125 0.25 0 
2.875 0.25 0 2.9375 0.25 0 3 0.25 0 
3.0625 0.25 0 3.125 0.25 0 3.1875 0.25 0 
3.25 0.25 0 3.3125 0.25 0 3.375 0.25 0 
3.4375 0.25 0 3.5 0.25 0 3.5625 0.25 0 
3.625 0.25 0 3.6875 0.25 0 3.75 0.25 0 
3.8125 0.25 0 3.875 0.25 0 3.9375 0.25 0 
4 0.25 0 4.0625 0.25 0 4.125 0.25 0 
4.1875 0.25 0 4.25 0.25 0 4.3125 0.25 0 
4.375 0.25 0 4.4375 0.25 0 4.5 0.25 0 
4.5625 0.25 0 4.625 0.25 0 4.6875 0.25 0 
4.75 0.25 0 4.8125 0.25 0 4.875 0.25 0 
4.9375 0.25 0 5 0.25 0 5.0625 0.25 0 
5.125 0.25 0 5.1875 0.25 0 5.25 0.25 0 
5.3125 0.25 0 5.375 0.25 0 5.4375 0.25 0 
5.5 0.25 0 5.5625 0.25 0 5.625 0.25 0 
5.6875 0.25 0 5.75 0.25 0 5.8125 0.25 0 
5.875 0.25 0 5.9375 0.25 0 6 0.25 0 
6.0625 0.25 0 6.125 0.25 0 6.1875 0.25 0 
6.25 0.25 0 6.3125 0.25 0 6.375 0.25 0 
6.4375 0.25 0 6.5 0.25 0 6.5625 0.25 0 
6.625 0.25 0 6.6875 0.25 0 6.75 0.25 0 
6.8125 0.25 0 6.875 0.25 0 6.9375 0.25 0 
7 0.25 0 0 0.31194 0 0.090712 0.31195 0 
0.181847 0.31198 0 0.273488 0.312016 0 0.366295 0.312074 0 
0.459965 0.312162 0 0.55518 0.312265 0 0.651257 0.312432 0 
0.748601 0.312588 0 0.84639 0.312837 0 0.944654 0.313026 0 
1.04299 0.313312 0 1.1413 0.313429 0 1.23965 0.31367 0 
1.3376 0.31337 0 1.4358 0.313529 0 1.53386 0.313335 0 
1.56196 0.31328 0 1.58887 0.313318 0 1.61435 0.313436 0 
1.63956 0.313553 0 1.66429 0.313663 0 1.68901 0.313725 0 
1.71354 0.313743 0 1.73843 0.313698 0 1.76355 0.313621 0 
1.78983 0.313489 0 1.81735 0.313347 0 1.84746 0.313167 0 
1.88066 0.313005 0 1.91845 0.312829 0 1.96165 0.3127 0 
2.01104 0.312589 0 2.0663 0.312535 0 2.1259 0.312507 0 
2.18766 0.312502 0 2.25003 0.3125 0 2.31251 0.3125 0 
2.375 0.3125 0 2.4375 0.3125 0 2.5 0.3125 0 
2.5625 0.3125 0 2.625 0.3125 0 2.6875 0.3125 0 
2.75 0.3125 0 2.8125 0.3125 0 2.875 0.3125 0 
2.9375 0.3125 0 3 0.3125 0 3.0625 0.3125 0 
3.125 0.3125 0 3.1875 0.3125 0 3.25 0.3125 0 
3.3125 0.3125 0 3.375 0.3125 0 3.4375 0.3125 0 
3.5 0.3125 0 3.5625 0.3125 0 3.625 0.3125 0 
3.6875 0.3125 0 3.75 0.3125 0 3.8125 0.3125 0 
3.875 0.3125 0 3.9375 0.3125 0 4 0.3125 0 
4.0625 0.3125 0 4.125 0.3125 0 4.1875 0.3125 0 
4.25 0.3125 0 4.3125 0.3125 0 4.375 0.3125 0 
4.4375 0.3125 0 4.5 0.3125 0 4.5625 0.3125 0 
4.625 0.3125 0 4.6875 0.3125 0 4.75 0.3125 0 
4.8125 0.3125 0 4.875 0.3125 0 4.9375 0.3125 0 
[...]
CELL_DATA 1344
SCALARS vol float
LOOKUP_TABLE default
0.002271 0.002304 0.00236 0.002419 0.002455 0.002466 0.002467 0.002468 0.000688 
0.000632 0.000616 0.000616 0.000641 0.000719 0.000884 0.001152 0.001433 0.001551 
0.001562 0.001562 0.001562 0.001563 0.001562 0.001563 0.001563 0.001562 0.001562 
0.001562 0.001562 0.001562 0.001562 0.001563 0.001562 0.001562 0.001562 0.001562 
0.001563 0.001562 0.001563 0.001562 0.001563 0.001562 0.001562 0.001563 0.001563 
0.001562 0.001562 0.001563 0.001562 0.001562 0.001562 0.001562 0.001563 0.001562 
0.001563 0.001563 0.002271 0.002304 0.002361 0.00242 0.002457 0.002469 0.00247 
0.002471 0.000688 0.000631 0.000614 0.000614 0.000639 0.000717 0.000885 0.001156 
0.001437 0.001552 0.001562 0.001562 0.001562 0.001563 0.001562 0.001563 0.001563 
0.001563 0.001562 0.001562 0.001562 0.001562 0.001562 0.001563 0.001562 0.001562 
0.001562 0.001562 0.001563 0.001562 0.001563 0.001562 0.001563 0.001562 0.001562 
0.001563 0.001563 0.001562 0.001562 0.001563 0.001562 0.001562 0.001562 0.001562 
0.001562 0.001562 0.001563 0.001563 0.002272 0.002305 0.002363 0.002424 0.002462 
0.002474 0.002476 0.002477 0.000688 0.000631 0.000614 0.000614 0.000639 0.000718 
0.000887 0.001159 0.001439 0.001552 0.001562 0.001562 0.001562 0.001563 0.001562 
0.001563 0.001563 0.001563 0.001563 0.001563 0.001563 0.001562 0.001562 0.001563 
0.001562 0.001563 0.001562 0.001562 0.001563 0.001562 0.001563 0.001562 0.001563 
0.001562 0.001562 0.001563 0.001563 0.001562 0.001562 0.001563 0.001562 0.001563 
0.001562 0.001562 0.001563 0.001562 0.001563 0.001563 0.002273 0.002307 0.002367 
0.00243 0.00247 0.002485 0.002487 0.002486 0.00069 0.000633 0.000615 0.000614 
0.00064 0.000719 0.000889 0.001162 0.001441 0.001553 0.001562 0.001562 0.001562 
0.001563 0.001562 0.001563 0.001563 0.001563 0.001563 0.001563 0.001563 0.001562 
0.001562 0.001563 0.001562 0.001562 0.001562 0.001562 0.001563 0.001562 0.001563 
0.001562 0.001563 0.001562 0.001562 0.001563 0.001563 0.001562 0.001562 0.001563 
0.001562 0.001562 0.001562 0.001562 0.001563 0.001562 0.001563 0.001563 0.002274 
0.00231 0.002372 0.002439 0.002482 0.002501 0.002503 0.002501 0.000694 0.000635 
0.000616 0.000616 0.000641 0.00072 0.00089 0.001163 0.001441 0.001553 0.001562 
0.001562 0.001562 0.001563 0.001563 0.001563 0.001563 0.001563 0.001563 0.001563 
0.001563 0.001563 0.001562 0.001563 0.001562 0.001562 0.001562 0.001562 0.001563 
0.001562 0.001563 0.001562 0.001563 0.001562 0.001562 0.001563 0.001563 0.001562 
0.001563 0.001562 0.001562 0.001562 0.001562 0.001562 0.001562 0.001562 0.001563 
0.001563 0.002277 0.002315 0.00238 0.002451 0.002499 0.002522 0.002525 0.00252 
0.000697 0.000637 0.000617 0.000616 0.000641 0.00072 0.000889 0.001162 0.00144 
0.001552 0.001562 0.001562 0.001562 0.001563 0.001563 0.001563 0.001563 0.001563 
0.001563 0.001563 0.001563 0.001563 0.001563 0.001563 0.001562 0.001562 0.001562 
0.001562 0.001563 0.001562 0.001563 0.001562 0.001563 0.001562 0.001562 0.001563 
0.001563 0.001562 0.001562 0.001563 0.001562 0.001562 0.001562 0.001562 0.001562 
0.001562 0.001563 0.001563 0.002282 0.002321 0.00239 0.002466 0.002523 0.002552 
0.002555 0.002543 0.000701 0.000638 0.000616 0.000614 0.000638 0.000717 0.000884 
0.001154 0.001432 0.00155 0.001562 0.001562 0.001562 0.001562 0.001563 0.001563 
0.001563 0.001563 0.001563 0.001563 0.001563 0.001563 0.001563 0.001563 0.001563 
0.001562 0.001562 0.001562 0.001563 0.001562 0.001563 0.001562 0.001563 0.001562 
0.001562 0.001562 0.001563 0.001562 0.001562 0.001562 0.001562 0.001562 0.001562 
0.001562 0.001562 0.001562 0.001563 0.001563 0.002287 0.002329 0.002403 0.002486 
0.002554 0.00259 0.002597 0.002577 0.000706 0.000639 0.000612 0.000605 0.000629 
0.000706 0.000868 0.001126 0.001398 0.001535 0.001559 0.001562 0.001562 0.001562 
0.001562 0.001562 0.001563 0.001563 0.001563 0.001563 0.001563 0.001563 0.001563 
0.001563 0.001563 0.001562 0.001562 0.001562 0.001563 0.001562 0.001563 0.001562 
0.001563 0.001562 0.001562 0.001563 0.001563 0.001562 0.001562 0.001562 0.001562 
0.001562 0.001562 0.001562 0.001563 0.001562 0.001562 0.001563 0.002294 0.002338 
0.002418 0.002511 0.002594 0.002643 0.002656 0.002645 0.000719 0.000648 0.000616 
0.000595 0.000613 0.000685 0.000834 0.001065 0.001309 0.001466 0.00153 0.001552 
0.00156 0.001562 0.001562 0.001562 0.001562 0.001562 0.001562 0.001563 0.001563 
0.001563 0.001563 0.001563 0.001563 0.001563 0.001562 0.001562 0.001562 0.001562 
0.001563 0.001562 0.001563 0.001562 0.001562 0.001563 0.001562 0.001562 0.001562 
0.001562 0.001562 0.001562 0.001562 0.001562 0.001562 0.001562 0.001563 0.001563 
0.002303 0.00235 0.002436 0.002542 0.002643 0.002707 0.002742 0.002812 0.000757 
0.000681 0.000644 0.000613 0.000603 0.000661 0.000788 0.000972 0.001155 0.001297 
0.001398 0.001473 0.001523 0.00155 0.00156 0.001562 0.001562 0.001562 0.001562 
0.001563 0.001563 0.001563 0.001563 0.001563 0.001563 0.001563 0.001563 0.001562 
0.001563 0.001562 0.001563 0.001562 0.001563 0.001562 0.001562 0.001563 0.001563 
0.001562 0.001562 0.001562 0.001562 0.001562 0.001562 0.001562 0.001562 0.001562 
0.001563 0.001563 0.002312 0.002362 0.002456 0.002577 0.002701 0.002782 0.00291 
0.003157 0.000852 0.000747 0.000716 0.000673 0.000644 0.000663 0.000756 0.000885 
0.000995 0.001083 0.001171 0.001265 0.001363 0.001453 0.001517 0.001549 0.00156 
0.001562 0.001562 0.001562 0.001562 0.001562 0.001562 0.001562 0.001562 0.001563 
0.001563 0.001563 0.001563 0.001562 0.001563 0.001562 0.001563 0.001562 0.001562 
0.001562 0.001563 0.001562 0.001562 0.001562 0.001562 0.001562 0.001562 0.001562 
0.001563 0.001562 0.001563 0.001563 0.002322 0.002376 0.002478 0.002616 0.002763 
0.002863 0.003111 0.0037 0.001097 0.000922 0.000849 0.000811 0.000776 0.00077 
0.00083 0.000884 0.000906 0.000933 0.000977 0.001035 0.001115 0.001218 0.001333 
0.001441 0.001517 0.001551 0.00156 0.001562 0.001562 0.001562 0.001562 0.001562 
0.001562 0.001562 0.001562 0.001562 0.001563 0.001562 0.001563 0.001562 0.001563 
0.001562 0.001562 0.001563 0.001563 0.001562 0.001562 0.001563 0.001562 0.001562 
0.001562 0.001562 0.001562 0.001562 0.001563 0.001563 0.002333 0.00239 0.002502 
0.002658 0.002829 0.002962 0.003265 0.003931 0.001025 0.000994 0.000954 0.000941 
0.000928 0.000927 0.000922 0.000902 0.000883 0.000875 0.000872 0.000867 0.000869 
0.00091 0.001009 0.001161 0.001333 0.001469 0.001537 0.001558 0.001562 0.001562 
0.001562 0.001562 0.001562 0.001562 0.001562 0.001562 0.001562 0.001563 0.001563 
0.001562 0.001562 0.001562 0.001562 0.001563 0.001562 0.001562 0.001562 0.001562 
0.001562 0.001562 0.001562 0.001562 0.001562 0.001562 0.001562 0.001563 0.002343 
0.002404 0.002526 0.002702 0.002901 0.003069 0.003358 0.003852 0.000955 0.000909 
0.000889 0.000879 0.000871 0.000859 0.000844 0.000839 0.000839 0.000837 0.000833 
0.000835 0.000857 0.000905 0.000991 0.00112 0.001279 0.001428 0.001521 0.001554 
0.001561 0.001562 0.001562 0.001562 0.001562 0.001562 0.001562 0.001562 0.001562 
0.001563 0.001563 0.001562 0.001563 0.001562 0.001562 0.001563 0.001563 0.001562 
0.001563 0.001563 0.001562 0.001562 0.001562 0.001562 0.001563 0.001562 0.001563 
0.001563 0.002353 0.002418 0.00255 0.002746 0.002976 0.00316 0.003382 0.003751 
0.000926 0.000882 0.000863 0.000853 0.000847 0.000843 0.00084 0.000836 0.000834 
0.000833 0.000835 0.000844 0.000863 0.000901 0.000972 0.001085 0.001237 0.001394 
0.001505 0.00155 0.001561 0.001562 0.001562 0.001562 0.001562 0.001562 0.001562 
0.001562 0.001562 0.001563 0.001563 0.001562 0.001562 0.001562 0.001562 0.001562 
0.001562 0.001562 0.001562 0.001562 0.001562 0.001562 0.001562 0.001562 0.001562 
0.001562 0.001563 0.001563 0.002363 0.002431 0.002573 0.002788 0.003047 0.003257 
0.003431 0.003672 0.000908 0.000867 0.000849 0.000842 0.000837 0.000835 0.000835 
0.000834 0.000834 0.000835 0.000838 0.000846 0.000861 0.000894 0.000956 0.00106 
0.001206 0.001367 0.00149 0.001546 0.00156 0.001562 0.001562 0.001562 0.001562 
0.001562 0.001562 0.001562 0.001562 0.001562 0.001563 0.001562 0.001563 0.001562 
0.001562 0.001563 0.001563 0.001562 0.001563 0.001562 0.001562 0.001562 0.001562 
0.001562 0.001563 0.001562 0.001563 0.001563 0.002371 0.002443 0.002594 0.002827 
0.003113 0.003349 0.003463 0.003641 0.0009 0.000858 0.000842 0.000834 0.000831 
0.000831 0.00083 0.000831 0.000832 0.000834 0.000838 0.000844 0.000858 0.000886 
0.000943 0.001041 0.001183 0.001345 0.001477 0.001542 0.001559 0.001562 0.001562 
0.001562 0.001562 0.001562 0.001562 0.001562 0.001562 0.001562 0.001563 0.001562 
0.001563 0.001562 0.001562 0.001563 0.001563 0.001562 0.001562 0.001562 0.001562 
0.001562 0.001562 0.001562 0.001562 0.001562 0.001563 0.001563 0.002377 0.002453 
0.002612 0.002861 0.003169 0.003429 0.003517 0.003627 0.000894 0.000853 0.000837 
0.00083 0.000828 0.000828 0.000828 0.000829 0.00083 0.000832 0.000836 0.000841 
0.000853 0.000879 0.000932 0.001026 0.001165 0.001328 0.001467 0.001539 0.001559 
0.001562 0.001562 0.001562 0.001562 0.001562 0.001562 0.001562 0.001562 0.001562 
0.001563 0.001562 0.001562 0.001562 0.001562 0.001562 0.001563 0.001562 0.001562 
0.001562 0.001562 0.001562 0.001562 0.001562 0.001562 0.001562 0.001562 0.001563 
0.002383 0.002461 0.002627 0.002888 0.003215 0.003493 0.003578 0.003645 0.000893 
0.000852 0.000836 0.000829 0.000827 0.000826 0.000826 0.000827 0.000829 0.000831 
0.000833 0.000838 0.000849 0.000873 0.000924 0.001015 0.001151 0.001315 0.001458 
0.001536 0.001558 0.001562 0.001562 0.001562 0.001562 0.001562 0.001562 0.001562 
0.001562 0.001562 0.001563 0.001562 0.001562 0.001562 0.001562 0.001562 0.001563 
0.001562 0.001562 0.001562 0.001562 0.001562 0.001562 0.001562 0.001562 0.001562 
0.001563 0.001563 0.002386 0.002466 0.002637 0.002907 0.003251 0.003544 0.003639 
0.00367 0.000894 0.000852 0.000836 0.000829 0.000826 0.000825 0.000825 0.000826 
0.000827 0.000828 0.00083 0.000835 0.000845 0.000868 0.000917 0.001006 0.00114 
0.001304 0.001451 0.001533 0.001558 0.001562 0.001562 0.001562 0.001562 0.001562 
0.001562 0.001562 0.001562 0.001562 0.001563 0.001562 0.001563 0.001562 0.001562 
0.001562 0.001563 0.001562 0.001562 0.001563 0.001562 0.001562 0.001562 0.001562 
0.001562 0.001562 0.001562 0.001563 0.002389 0.00247 0.002643 0.00292 0.003275 
0.00358 0.003688 0.003698 0.000896 0.000853 0.000836 0.000828 0.000825 0.000824 
0.000824 0.000824 0.000825 0.000826 0.000828 0.000832 0.000841 0.000864 0.000912 
0.000999 0.001132 0.001296 0.001446 0.001531 0.001557 0.001562 0.001562 0.001562 
0.001562 0.001562 0.001562 0.001562 0.001562 0.001562 0.001563 0.001563 0.001563 
0.001562 0.001563 0.001563 0.001563 0.001562 0.001563 0.001563 0.001562 0.001562 
0.001563 0.001562 0.001563 0.001563 0.001563 0.001563 0.00239 0.002472 0.002647 
0.002928 0.003289 0.003601 0.003719 0.00372 0.000898 0.000855 0.000837 0.000829 
0.000825 0.000824 0.000823 0.000823 0.000824 0.000825 0.000827 0.00083 0.000839 
0.000861 0.000908 0.000994 0.001126 0.00129 0.001441 0.00153 0.001557 0.001562 
0.001562 0.001562 0.001562 0.001562 0.001562 0.001562 0.001562 0.001562 0.001563 
0.001562 0.001563 0.001562 0.001562 0.001562 0.001562 0.001562 0.001562 0.001562 
0.001562 0.001562 0.001562 0.001562 0.001562 0.001562 0.001563 0.001563 0.002391 
0.002473 0.002649 0.002933 0.003298 0.003613 0.003736 0.003734 0.0009 0.000856 
0.000838 0.00083 0.000826 0.000824 0.000823 0.000823 0.000823 0.000824 0.000825 
0.000829 0.000837 0.000859 0.000906 0.000991 0.001122 0.001286 0.001438 0.001528 
0.001557 0.001562 0.001562 0.001562 0.001562 0.001562 0.001562 0.001562 0.001562 
0.001562 0.001563 0.001562 0.001562 0.001562 0.001562 0.001562 0.001562 0.001562 
0.001562 0.001562 0.001562 0.001562 0.001562 0.001562 0.001562 0.001562 0.001562 
0.001562 0.002392 0.002475 0.002653 0.002939 0.003308 0.003622 0.003744 0.003742 
0.0009 0.000858 0.000839 0.00083 0.000826 0.000824 0.000823 0.000822 0.000822 
0.000823 0.000824 0.000828 0.000837 0.000859 0.000906 0.00099 0.00112 0.001283 
0.001435 0.001527 0.001556 0.001562 0.001562 0.001562 0.001562 0.001562 0.001562 
0.001562 0.001562 0.001562 0.001563 0.001562 0.001563 0.001562 0.001562 0.001563 
0.001563 0.001562 0.001562 0.001563 0.001562 0.001562 0.001562 0.001562 0.001562 
0.001562 0.001562 0.001563 
METADATA
INFORMATION 0

FIELD FieldData 8
mat_id 1 1344 float
0 0 0 0 0 0 0 0 0 
0 0 0 0 0 0 0 0 0 
0 0 0 0 0 0 0 0 0 
0 0 0 0 0 0 0 0 0 
0 0 0 0 0 0 0 0 0 
0 0 0 0 0 0 0 0 0 
0 0 0 0 0 0 0 0 0 
0 0 0 0 0 0 0 0 0 
0 0 0 0 0 0 0 0 0 
0 0 0 0 0 0 0 0 0 
0 0 0 0 0 0 0 0 0 
0 0 0 0 0 0 0 0 0 
0 0 0 0 0 0 0 0 0 
0 0 0 0 0 0 0 0 0 
0 0 0 0 0 0 0 0 0 
0 0 0 0 0 0 0 0 0 
0 0 0 0 0 0 0 0 0 
0 0 0 0 0 0 0 0 0 
0 0 0 0 0 0 0 0 0 
0 0 0 0 0 0 0 0 0 
0 0 0 0 0 0 0 0 0 
0 0 0 0 0 0 0 0 0 
0 0 0 0 0 0 0 0 0 
0 0 0 0 0 0 0 0 0 
0 0 0 0 0 0 0 0 0 
0 0 0 0 0 0 0 0 0 
0 0 0 0 0 0 0 0 0 
0 0 0 0 0 0 0 0 0 
0 0 0 0 0 0 0 0 0 
0 0 0 0 0 0 0 0 0 
0 0 0 0 0 0 0 0 0 
0 0 0 0 0 0 0 0 0 
0 0 0 0 0 0 0 0 0 
0 0 0 0 0 0 0 0 0 
0 0 0 0 0 0 0 0 0 
0 0 0 0 0 0 0 0 0 
0 0 0 0 0 0 0 0 0 
0 0 0 0 0 0 0 0 0 
0 0 0 0 0 0 0 0 0 
0 0 0 0 0 0 0 0 0 
0 0 0 0 0 0 0 0 0 
0 0 0 0 0 0 0 0 0 
0 0 0 0 0 0 0 0 0 
0 0 0 0 0 0 0 0 0 
0 0 0 0 0 0 0 0 0 
0 0 0 0 0 0 0 0 0 
0 0 0 0 0 0 0 0 0 
0 0 0 0 0 0 0 0 0 
0 0 0 0 0 0 0 0 0 
0 0 0 0 0 0 0 0 0 
0 0 0 0 0 0 0 0 0 
0 0 0 0 0 0 0 0 0 
0 0 0 0 0 0 0 0 0 
0 0 0 0 0 0 0 0 0 
0 0 0 0 0 0 0 0 0 
0 0 0 0 0 0 0 0 0 
0 0 0 0 0 0 0 0 0 
0 0 0 0 0 0 0 0 0 
0 0 0 0 0 0 0 0 0 
0 0 0 0 0 0 0 0 0 
0 0 0 0 0 0 0 0 0 
0 0 0 0 0 0 0 0 0 
0 0 0 0 0 0 0 0 0 
0 0 0 0 0 0 0 0 0 
0 0 0 0 0 0 0 0 0 
0 0 0 0 0 0 0 0 0 
0 0 0 0 0 0 0 0 0 
0 0 0 0 0 0 0 0 0 
0 0 0 0 0 0 0 0 0 
0 0 0 0 0 0 0 0 0 
0 0 0 0 0 0 0 0 0 
0 0 0 0 0 0 0 0 0 
0 0 0 0 0 0 0 0 0 
0 0 0 0 0 0 0 0 0 
0 0 0 0 0 0 0 0 0 
0 0 0 0 0 0 0 0 0 
0 0 0 0 0 0 0 0 0 
0 0 0 0 0 0 0 0 0 
0 0 0 0 0 0 0 0 0 
0 0 0 0 0 0 0 0 0 
0 0 0 0 0 0 0 0 0 
0 0 0 0 0 0 0 0 0 
0 0 0 0 0 0 0 0 0 
0 0 0 0 0 0 0 0 0 
0 0 0 0 0 0 0 0 0 
0 0 0 0 0 0 0 0 0 
0 0 0 0 0 0 0 0 0 
0 0 0 0 0 0 0 0 0 
0 0 0 0 0 0 0 0 0 
0 0 0 0 0 0 0 0 0 
0 0 0 0 0 0 0 0 0 
0 0 0 0 0 0 0 0 0 
0 0 0 0 0 0 0 0 0 
0 0 0 0 0 0 0 0 0 
0 0 0 0 0 0 0 0 0 
0 0 0 0 0 0 0 0 0 
0 0 0 0 0 0 0 0 0 
0 0 0 0 0 0 0 0 0 
0 0 0 0 0 0 0 0 0 
0 0 0 0 0 0 0 0 0 
0 0 0 0 0 0 0 0 0 
0 0 0 0 0 0 0 0 0 
0 0 0 0 0 0 0 0 0 
0 0 0 0 0 0 0 0 0 
0 0 0 0 0 0 0 0 0 
0 0 0 0 0 0 0 0 0 
0 0 0 0 0 0 0 0 0 
0 0 0 0 0 0 0 0 0 
0 0 0 0 0 0 0 0 0 
0 0 0 0 0 0 0 0 0 
0 0 0 0 0 0 0 0 0 
0 0 0 0 0 0 0 0 0 
0 0 0 0 0 0 0 0 0 
0 0 0 0 0 0 0 0 0 
0 0 0 0 0 0 0 0 0 
0 0 0 0 0 0 0 0 0 
0 0 0 0 0 0 0 0 0 
0 0 0 0 0 0 0 0 0 
0 0 0 0 0 0 0 0 0 
0 0 0 0 0 0 0 0 0 
0 0 0 0 0 0 0 0 0 
0 0 0 0 0 0 0 0 0 
0 0 0 0 0 0 0 0 0 
0 0 0 0 0 0 0 0 0 
0 0 0 0 0 0 0 0 0 
0 0 0 0 0 0 0 0 0 
0 0 0 0 0 0 0 0 0 
0 0 0 0 0 0 0 0 0 
0 0 0 0 0 0 0 0 0 
0 0 0 0 0 0 0 0 0 
0 0 0 0 0 0 0 0 0 
0 0 0 0 0 0 0 0 0 
0 0 0 0 0 0 0 0 0 
0 0 0 0 0 0 0 0 0 
0 0 0 0 0 0 0 0 0 
0 0 0 0 0 0 0 0 0 
0 0 0 0 0 0 0 0 0 
0 0 0 0 0 0 0 0 0 
0 0 0 0 0 0 0 0 0 
0 0 0 0 0 0 0 0 0 
0 0 0 0 0 0 0 0 0 
0 0 0 0 0 0 0 0 0 
0 0 0 0 0 0 0 0 0 
0 0 0 0 0 0 0 0 0 
0 0 0 0 0 0 0 0 0 
0 0 0 0 0 0 0 0 0 
0 0 0 0 0 0 0 0 0 
0 0 0 0 0 0 0 0 0 
0 0 0 0 0 0 0 0 0 
0 0 0 
METADATA
INFORMATION 0

elem_switch 1 1344 float
1 1.84467e+19 1 1.84467e+19 1 1.84467e+19 1 1.84467e+19 1 
1.84467e+19 1 1.84467e+19 1 1.84467e+19 1 1.84467e+19 1 1.84467e+19 
1 1.84467e+19 1 1.84467e+19 1 1.84467e+19 1 1.84467e+19 1 
1.84467e+19 1 1.84467e+19 1 1.84467e+19 1 1.84467e+19 1 1.84467e+19 
1 1.84467e+19 1 1.84467e+19 1 1.84467e+19 1 1.84467e+19 1 
1.84467e+19 1 1.84467e+19 1 1.84467e+19 1 1.84467e+19 1 1.84467e+19 
1 1.84467e+19 1 1.84467e+19 1 1.84467e+19 1 1.84467e+19 1 
1.84467e+19 1 1.84467e+19 1 1.84467e+19 1 1.84467e+19 1 1.84467e+19 
1 1.84467e+19 1 1.84467e+19 1 1.84467e+19 1 1.84467e+19 1 
1.84467e+19 1 1.84467e+19 1 1.84467e+19 1 1.84467e+19 1 1.84467e+19 
1 1.84467e+19 1 1.84467e+19 1 1.84467e+19 1 1.84467e+19 1 
1.84467e+19 1 1.84467e+19 1 1.84467e+19 1 1.84467e+19 1 1.84467e+19 
1 1.84467e+19 1 1.84467e+19 1 1.84467e+19 1 1.84467e+19 1 
1.84467e+19 1 1.84467e+19 1 1.84467e+19 1 1.84467e+19 1 1.84467e+19 
1 1.84467e+19 1 1.84467e+19 1 1.84467e+19 1 1.84467e+19 1 
1.84467e+19 1 1.84467e+19 1 1.84467e+19 1 1.84467e+19 1 1.84467e+19 
1 1.84467e+19 1 1.84467e+19 1 1.84467e+19 1 1.84467e+19 1 
1.84467e+19 1 1.84467e+19 1 1.84467e+19 1 1.84467e+19 1 1.84467e+19 
1 1.84467e+19 1 1.84467e+19 1 1.84467e+19 1 1.84467e+19 1 
1.84467e+19 1 1.84467e+19 1 1.84467e+19 1 1.84467e+19 1 1.84467e+19 
1 1.84467e+19 1 1.84467e+19 1 1.84467e+19 1 1.84467e+19 1 
1.84467e+19 1 1.84467e+19 1 1.84467e+19 1 1.84467e+19 1 1.84467e+19 
1 1.84467e+19 1 1.84467e+19 1 1.84467e+19 1 1.84467e+19 1 
1.84467e+19 1 1.84467e+19 1 1.84467e+19 1 1.84467e+19 1 1.84467e+19 
1 1.84467e+19 1 1.84467e+19 1 1.84467e+19 1 1.84467e+19 1 
1.84467e+19 1 1.84467e+19 1 1.84467e+19 1 1.84467e+19 1 1.84467e+19 
1 1.84467e+19 1 1.84467e+19 1 1.84467e+19 1 1.84467e+19 1 
1.84467e+19 1 1.84467e+19 1 1.84467e+19 1 1.84467e+19 1 1.84467e+19 
1 1.84467e+19 1 1.84467e+19 1 1.84467e+19 1 1.84467e+19 1 
1.84467e+19 1 1.84467e+19 1 1.84467e+19 1 1.84467e+19 1 1.84467e+19 
1 1.84467e+19 1 1.84467e+19 1 1.84467e+19 1 1.84467e+19 1 
1.84467e+19 1 1.84467e+19 1 1.84467e+19 1 1.84467e+19 1 1.84467e+19 
1 1.84467e+19 1 1.84467e+19 1 1.84467e+19 1 1.84467e+19 1 
1.84467e+19 1 1.84467e+19 1 1.84467e+19 1 1.84467e+19 1 1.84467e+19 
1 1.84467e+19 1 1.84467e+19 1 1.84467e+19 1 1.84467e+19 1 
1.84467e+19 1 1.84467e+19 1 1.84467e+19 1 1.84467e+19 1 1.84467e+19 
1 1.84467e+19 1 1.84467e+19 1 1.84467e+19 1 1.84467e+19 1 
1.84467e+19 1 1.84467e+19 1 1.84467e+19 1 1.84467e+19 1 1.84467e+19 
1 1.84467e+19 1 1.84467e+19 1 1.84467e+19 1 1.84467e+19 1 
1.84467e+19 1 1.84467e+19 1 1.84467e+19 1 1.84467e+19 1 1.84467e+19 
1 1.84467e+19 1 1.84467e+19 1 1.84467e+19 1 1.84467e+19 1 
1.84467e+19 1 1.84467e+19 1 1.84467e+19 1 1.84467e+19 1 1.84467e+19 
1 1.84467e+19 1 1.84467e+19 1 1.84467e+19 1 1.84467e+19 1 
1.84467e+19 1 1.84467e+19 1 1.84467e+19 1 1.84467e+19 1 1.84467e+19 
1 1.84467e+19 1 1.84467e+19 1 1.84467e+19 1 1.84467e+19 1 
1.84467e+19 1 1.84467e+19 1 1.84467e+19 1 1.84467e+19 1 1.84467e+19 
1 1.84467e+19 1 1.84467e+19 1 1.84467e+19 1 1.84467e+19 1 
1.84467e+19 1 1.84467e+19 1 1.84467e+19 1 1.84467e+19 1 1.84467e+19 
1 1.84467e+19 1 1.84467e+19 1 1.84467e+19 1 1.84467e+19 1 
1.84467e+19 1 1.84467e+19 1 1.84467e+19 1 1.84467e+19 1 1.84467e+19 
1 1.84467e+19 1 1.84467e+19 1 1.84467e+19 1 1.84467e+19 1 
1.84467e+19 1 1.84467e+19 1 1.84467e+19 1 1.84467e+19 1 1.84467e+19 
1 1.84467e+19 1 1.84467e+19 1 1.84467e+19 1 1.84467e+19 1 
1.84467e+19 1 1.84467e+19 1 1.84467e+19 1 1.84467e+19 1 1.84467e+19 
1 1.84467e+19 1 1.84467e+19 1 1.84467e+19 1 1.84467e+19 1 
1.84467e+19 1 1.84467e+19 1 1.84467e+19 1 1.84467e+19 1 1.84467e+19 
1 1.84467e+19 1 1.84467e+19 1 1.84467e+19 1 1.84467e+19 1 
1.84467e+19 1 1.84467e+19 1 1.84467e+19 1 1.84467e+19 1 1.84467e+19 
1 1.84467e+19 1 1.84467e+19 1 1.84467e+19 1 1.84467e+19 1 
1.84467e+19 1 1.84467e+19 1 1.84467e+19 1 1.84467e+19 1 1.84467e+19 
1 1.84467e+19 1 1.84467e+19 1 1.84467e+19 1 1.84467e+19 1 
1.84467e+19 1 1.84467e+19 1 1.84467e+19 1 1.84467e+19 1 1.84467e+19 
1 1.84467e+19 1 1.84467e+19 1 1.84467e+19 1 1.84467e+19 1 
1.84467e+19 1 1.84467e+19 1 1.84467e+19 1 1.84467e+19 1 1.84467e+19 
1 1.84467e+19 1 1.84467e+19 1 1.84467e+19 1 1.84467e+19 1 
1.84467e+19 1 1.84467e+19 1 1.84467e+19 1 1.84467e+19 1 1.84467e+19 
1 1.84467e+19 1 1.84467e+19 1 1.84467e+19 1 1.84467e+19 1 
1.84467e+19 1 1.84467e+19 1 1.84467e+19 1 1.84467e+19 1 1.84467e+19 
1 1.84467e+19 1 1.84467e+19 1 1.84467e+19 1 1.84467e+19 1 
1.84467e+19 1 1.84467e+19 1 1.84467e+19 1 1.84467e+19 1 1.84467e+19 
1 1.84467e+19 1 1.84467e+19 1 1.84467e+19 1 1.84467e+19 1 
1.84467e+19 1 1.84467e+19 1 1.84467e+19 1 1.84467e+19 1 1.84467e+19 
1 1.84467e+19 1 1.84467e+19 1 1.84467e+19 1 1.84467e+19 1 
1.84467e+19 1 1.84467e+19 1 1.84467e+19 1 1.84467e+19 1 1.84467e+19 
1 1.84467e+19 1 1.84467e+19 1 1.84467e+19 1 1.84467e+19 1 