# vtk DataFile Version 2.0
Mesh for Fierro
ASCII
DATASET UNSTRUCTURED_GRID

POINTS 2197 float
0.00000000                0.00000000                0.00000000                
0.53776191                0.00000000                0.00000000                
0.60205274                0.00000000                0.00000000                
0.69594450                0.00000000                0.00000000                
0.77599848                0.00000000                0.00000000                
0.84746937                0.00000000                0.00000000                
0.91204792                0.00000000                0.00000000                
0.96962515                0.00000000                0.00000000                
1.01908611                0.00000000                0.00000000                
1.05975035                0.00000000                0.00000000                
1.10930635                0.00000000                0.00000000                
1.11637892                0.00000000                0.00000000                
1.20000000                0.00000000                0.00000000                
0.00000000                0.53776191                0.00000000                
0.44435254                0.44435254                0.00000000                
0.61155544                0.26939912                0.00000000                
0.69846681                0.22064358                0.00000000                
0.77688181                0.18976175                0.00000000                
0.84748313                0.16967335                0.00000000                
0.91018232                0.15517265                0.00000000                
0.96483786                0.14332892                0.00000000                
1.01357716                0.13287109                0.00000000                
1.05399342                0.12283560                0.00000000                
1.09851927                0.11378558                0.00000000                
1.11184016                0.10152648                0.00000000                
1.20000000                0.10000052                0.00000000                
0.00000000                0.60205274                0.00000000                
0.26939912                0.61155544                0.00000000                
0.54203263                0.54203263                0.00000000                
0.67307734                0.41180871                0.00000000                
0.75701522                0.35501801                0.00000000                
0.82700772                0.31714318                0.00000000                
0.88817242                0.29071456                0.00000000                
0.94191103                0.27030805                0.00000000                
0.98673239                0.25193669                0.00000000                
1.02993988                0.23617460                0.00000000                
1.06148154                0.21674437                0.00000000                
1.10311427                0.20081847                0.00000000                
1.20000000                0.20000021                0.00000000                
0.00000000                0.69594450                0.00000000                
0.22064358                0.69846681                0.00000000                
0.41180871                0.67307734                0.00000000                
0.60391464                0.60391464                0.00000000                
0.71080419                0.50149623                0.00000000                
0.78868751                0.44974512                0.00000000                
0.85270186                0.41230124                0.00000000                
0.90696809                0.38368634                0.00000000                
0.95438813                0.35904395                0.00000000                
0.99927356                0.33668601                0.00000000                
1.02383514                0.30867229                0.00000000                
1.10029021                0.30009933                0.00000000                
1.20000000                0.30000001                0.00000000                
0.00000000                0.77599848                0.00000000                
0.18976175                0.77688181                0.00000000                
0.35501801                0.75701522                0.00000000                
0.50149623                0.71080419                0.00000000                
0.64970821                0.64970821                0.00000000                
0.73928284                0.56858842                0.00000000                
0.81006029                0.52387144                0.00000000                
0.86770511                0.48767065                0.00000000                
0.92067108                0.45894538                0.00000000                
0.95881249                0.42696076                0.00000000                
1.00427903                0.40189866                0.00000000                
1.10000820                0.40000322                0.00000000                
1.20000000                0.40000000                0.00000000                
0.00000000                0.84746937                0.00000000                
0.16967335                0.84748313                0.00000000                
0.31714318                0.82700772                0.00000000                
0.44974512                0.78868751                0.00000000                
0.56858842                0.73928284                0.00000000                
0.68717236                0.68717236                0.00000000                
0.76182433                0.62063065                0.00000000                
0.82630414                0.58266570                0.00000000                
0.87929698                0.54716000                0.00000000                
0.91747243                0.50972929                0.00000000                
1.00030406                0.50015749                0.00000000                
1.10000004                0.50000002                0.00000000                
1.20000000                0.50000000                0.00000000                
0.00000000                0.91204792                0.00000000                
0.15517265                0.91018232                0.00000000                
0.29071456                0.88817242                0.00000000                
0.41230124                0.85270186                0.00000000                
0.52387144                0.81006029                0.00000000                
0.62063065                0.76182433                0.00000000                
0.71717747                0.71717747                0.00000000                
0.78380908                0.66428258                0.00000000                
0.82986250                0.62120277                0.00000000                
0.90158256                0.60103535                0.00000000                
1.00000345                0.60000199                0.00000000                
1.10000000                0.60000000                0.00000000                
1.20000000                0.60000000                0.00000000                
0.00000000                0.96962515                0.00000000                
0.14332892                0.96483786                0.00000000                
0.27030805                0.94191103                0.00000000                
0.38368634                0.90696809                0.00000000                
0.48767065                0.86770511                0.00000000                
0.58266570                0.82630414                0.00000000                
0.66428258                0.78380908                0.00000000                
0.73913964                0.73913964                0.00000000                
0.80329722                0.70269171                0.00000000                
0.90002831                0.70002079                0.00000000                
1.00000000                0.70000000                0.00000000                
1.10000000                0.70000000                0.00000000                
1.20000000                0.70000000                0.00000000                
0.00000000                1.01908611                0.00000000                
0.13287109                1.01357716                0.00000000                
0.25193669                0.98673239                0.00000000                
0.35904395                0.95438813                0.00000000                
0.45894538                0.92067108                0.00000000                
0.54716000                0.87929698                0.00000000                
0.62120277                0.82986250                0.00000000                
0.70269171                0.80329722                0.00000000                
0.80011294                0.80011294                0.00000000                
0.90000003                0.80000002                0.00000000                
1.00000000                0.80000000                0.00000000                
1.10000000                0.80000000                0.00000000                
1.20000000                0.80000000                0.00000000                
0.00000000                1.05975035                0.00000000                
0.12283560                1.05399342                0.00000000                
0.23617460                1.02993988                0.00000000                
0.33668601                0.99927356                0.00000000                
0.42696076                0.95881249                0.00000000                
0.50972929                0.91747243                0.00000000                
0.60103535                0.90158256                0.00000000                
0.70002079                0.90002831                0.00000000                
[...]
POINT_DATA 2197
VECTORS velocity float
0.00000000                0.00000000                0.00000000                
0.15129286                0.00000000                0.00000000                
0.15323531                0.00000000                0.00000000                
0.18052624                0.00000000                0.00000000                
0.19922659                0.00000000                0.00000000                
0.21962195                0.00000000                0.00000000                
0.24196835                0.00000000                0.00000000                
0.26345823                0.00000000                0.00000000                
0.27808604                0.00000000                0.00000000                
0.35128500                0.00000000                0.00000000                
0.25113715                0.00000000                0.00000000                
0.38181582                0.00000000                0.00000000                
0.00000000                0.00000000                0.00000000                
0.00000000                0.15129286                0.00000000                
0.12109740                0.12109740                0.00000000                
0.16706916                0.08253341                0.00000000                
0.18507825                0.07255161                0.00000000                
0.20510401                0.06409840                0.00000000                
0.22557832                0.05784992                0.00000000                
0.24812410                0.05315190                0.00000000                
0.26935568                0.05031494                0.00000000                
0.29184205                0.05226268                0.00000000                
0.32796197                0.04779386                0.00000000                
0.34155637                0.05854756                0.00000000                
0.29245201                0.03622370                0.00000000                
0.00000000                0.00004101                0.00000000                
0.00000000                0.15323531                0.00000000                
0.08253341                0.16706916                0.00000000                
0.15129872                0.15129872                0.00000000                
0.18661483                0.12387973                0.00000000                
0.20744356                0.11091403                0.00000000                
0.23059254                0.09877480                0.00000000                
0.25292777                0.08951714                0.00000000                
0.27422715                0.08372217                0.00000000                
0.30646293                0.08576194                0.00000000                
0.28483792                0.07437695                0.00000000                
0.43878482                0.12180165                0.00000000                
0.08015231                0.02176584                0.00000000                
0.00000000                0.00001641                0.00000000                
0.00000000                0.18052624                0.00000000                
0.07255161                0.18507825                0.00000000                
0.12387973                0.18661483                0.00000000                
0.17156448                0.17156448                0.00000000                
0.20161696                0.14816375                0.00000000                
0.22568042                0.13415464                0.00000000                
0.24815988                0.12082245                0.00000000                
0.27809616                0.11779382                0.00000000                
0.28558967                0.10768783                0.00000000                
0.34061828                0.12922569                0.00000000                
0.32820362                0.11853629                0.00000000                
0.00927076                0.00327665                0.00000000                
0.00000000                0.00000048                0.00000000                
0.00000000                0.19922659                0.00000000                
0.06409840                0.20510401                0.00000000                
0.11091403                0.20744356                0.00000000                
0.14816375                0.20161696                0.00000000                
0.18839642                0.18839642                0.00000000                
0.21255306                0.16465196                0.00000000                
0.24407471                0.15550298                0.00000000                
0.26798333                0.14539135                0.00000000                
0.26576622                0.13184502                0.00000000                
0.39499686                0.18176438                0.00000000                
0.09442587                0.04187089                0.00000000                
0.00039903                0.00015905                0.00000000                
0.00000000                0.00000000                0.00000000                
0.00000000                0.21962195                0.00000000                
0.05784992                0.22557832                0.00000000                
0.09877480                0.23059254                0.00000000                
0.13415464                0.22568042                0.00000000                
0.16465196                0.21255306                0.00000000                
0.19805544                0.19805544                0.00000000                
0.23584271                0.18550201                0.00000000                
0.22778616                0.15266555                0.00000000                
0.33580943                0.20439457                0.00000000                
0.24988166                0.13969963                0.00000000                
0.00901370                0.00475284                0.00000000                
0.00000239                0.00000109                0.00000000                
0.00000000                0.00000000                0.00000000                
0.00000000                0.24196835                0.00000000                
0.05315190                0.24812410                0.00000000                
0.08951714                0.25292777                0.00000000                
0.12082245                0.24815988                0.00000000                
0.15550298                0.24407471                0.00000000                
0.18550201                0.23584271                0.00000000                
0.19670448                0.19670448                0.00000000                
0.27828749                0.22263260                0.00000000                
0.29186871                0.20940311                0.00000000                
0.03569997                0.02352921                0.00000000                
0.00016711                0.00009720                0.00000000                
0.00000001                0.00000000                0.00000000                
0.00000000                0.00000000                0.00000000                
0.00000000                0.26345823                0.00000000                
0.05031494                0.26935568                0.00000000                
0.08372217                0.27422715                0.00000000                
0.11779382                0.27809616                0.00000000                
0.14539135                0.26798333                0.00000000                
0.15266555                0.22778616                0.00000000                
0.22263260                0.27828749                0.00000000                
0.28020504                0.28020504                0.00000000                
0.06343861                0.05159365                0.00000000                
0.00103623                0.00076839                0.00000000                
0.00000017                0.00000011                0.00000000                
0.00000000                0.00000000                0.00000000                
0.00000000                0.00000000                0.00000000                
0.00000000                0.27808604                0.00000000                
0.05226268                0.29184205                0.00000000                
0.08576194                0.30646293                0.00000000                
0.10768783                0.28558967                0.00000000                
0.13184502                0.26576622                0.00000000                
0.20439457                0.33580943                0.00000000                
0.20940311                0.29186871                0.00000000                
0.05159365                0.06343861                0.00000000                
0.00335127                0.00335127                0.00000000                
0.00000143                0.00000119                0.00000000                
0.00000000                0.00000000                0.00000000                
0.00000000                0.00000000                0.00000000                
0.00000000                0.00000000                0.00000000                
0.00000000                0.35128500                0.00000000                
0.04779386                0.32796197                0.00000000                
0.07437695                0.28483792                0.00000000                
0.12922569                0.34061828                0.00000000                
0.18176438                0.39499686                0.00000000                
0.13969963                0.24988166                0.00000000                
0.02352921                0.03569997                0.00000000                
0.00076839                0.00103623                0.00000000                
0.00000119                0.00000143                0.00000000                
0.00000000                0.00000000                0.00000000                
0.00000000                0.00000000                0.00000000                
0.00000000                0.00000000                0.00000000                
0.00000000                0.00000000                0.00000000                
0.00000000                0.25113715                0.00000000                
0.05854756                0.34155637                0.00000000                
0.12180165                0.43878482                0.00000000                
0.11853629                0.32820362                0.00000000                
0.04187089                0.09442587                0.00000000                
0.00475284                0.00901370                0.00000000                
0.00009720                0.00016711                0.00000000                
0.00000011                0.00000017                0.00000000                
0.00000000                0.00000000                0.00000000                
0.00000000                0.00000000                0.00000000                
0.00000000                0.00000000                0.00000000                
0.00000000                0.00000000                0.00000000                
0.00000000                0.00000000                0.00000000                
0.00000000                0.38181582                0.00000000                
0.03622370                0.29245201                0.00000000                
0.02176584                0.08015231                0.00000000                
0.00327665                0.00927076                0.00000000                
0.00015905                0.00039903                0.00000000                
0.00000109                0.00000239                0.00000000                
0.00000000                0.00000001                0.00000000                
0.00000000                0.00000000                0.00000000                
0.00000000                0.00000000                0.00000000                
0.00000000                0.00000000                0.00000000                
0.00000000                0.00000000                0.00000000                
0.00000000                -0.00000000               0.00000000                
0.00000000                0.00000000                0.00000000                
0.00000000                0.00000000                0.00000000                
0.00004101                0.00000000                0.00000000                
0.00001641                0.00000000                0.00000000                
0.00000048                0.00000000                0.00000000                
0.00000000                0.00000000                0.00000000                
0.00000000                0.00000000                0.00000000                
0.00000000                0.00000000                0.00000000                
0.00000000                0.00000000                0.00000000                
0.00000000                0.00000000                0.00000000                
0.00000000                0.00000000                0.00000000                
0.00000000                0.00000000                0.00000000                
0.00000000                0.00000000                0.00000000                
0.00000000                0.00000000                0.00000000                
0.00000000                0.00000000                0.15129286                
0.12109740                0.00000000                0.12109740                
0.16706916                0.00000000                0.08253341                
0.18507825                0.00000000                0.07255161                
0.20510401                0.00000000                0.06409840                
0.22557832                0.00000000                0.05784992                
0.24812410                0.00000000                0.05315190                
0.26935568                0.00000000                0.05031494                
0.29184205                0.00000000                0.05226268                
0.32796197                0.00000000                0.04779386                
0.34155637                0.00000000                0.05854756                
0.29245201                0.00000000                0.03622370                
0.00000000                0.00000000                0.00004101                
0.00000000                0.12109740                0.12109740                
0.11194433                0.11194433                0.11194433                
0.16763493                0.08447348                0.08447348                
0.18818094                0.06881720                0.06881720                
0.20793413                0.06125917                0.06125917                
0.22912333                0.05484865                0.05484865                
0.25170547                0.05018152                0.05018152                
0.27224313                0.04698754                0.04698754                
0.30077655                0.04897950                0.04897950                
0.30800102                0.04250931                0.04250931                
0.40165640                0.06440826                0.06440826                
0.21450057                0.02766431                0.02766431                
0.00000000                0.00002538                0.00002538                
0.00000000                0.16706916                0.08253341                
0.08447348                0.16763493                0.08447348                
0.14671206                0.14671206                0.07661738                
0.18541418                0.12388847                0.06505718                
0.20769496                0.10849415                0.05558558                
0.23095378                0.09698467                0.04975907                
0.25306158                0.08754438                0.04486165                
0.27552492                0.08255333                0.04216991                
0.30537290                0.08302718                0.04225252                
0.28730540                0.07481661                0.03779717                
0.42864392                0.11485281                0.05668998                
0.05712571                0.01532577                0.00770589                
0.00000000                0.00001000                0.00000477                
0.00000000                0.18507825                0.07255161                
0.06881720                0.18818094                0.06881720                
0.12388847                0.18541418                0.06505718                
0.16862699                0.16862699                0.05971093                
0.20078594                0.14850555                0.05284890                
0.22513003                0.13297281                0.04626450                
0.24786893                0.12034648                0.04185713                
0.27864928                0.11728339                0.04033039                
0.27970791                0.10485952                0.03571615                
0.35622202                0.13373729                0.04466998                
0.29339533                0.10428998                0.03244443                
0.00661588                0.00230056                0.00077655                
0.00000000                0.00000030                0.00000008                
0.00000000                0.20510401                0.06409840                
0.06125917                0.20793413                0.06125917                
0.10849415                0.20769496                0.05558558                
0.14850555                0.20078594                0.05284890                
0.18594880                0.18594880                0.04921526                
0.21173705                0.16466959                0.04398982                
0.24448037                0.15544591                0.04078769                
0.26429520                0.14306836                0.03713853                
0.27336582                0.13597825                0.03482393                
0.38848962                0.17779283                0.04530383                
0.07612365                0.03370150                0.00840840                
0.00027532                0.00010882                0.00002590                
0.00000000                0.00000000                0.00000000                
0.00000000                0.22557832                0.05784992                
0.05484865                0.22912333                0.05484865                
0.09698467                0.23095378                0.04975907                
0.13297281                0.22513003                0.04626450                
0.16466959                0.21173705                0.04398982                
0.19891678                0.19891678                0.04227551                
0.23331275                0.18492540                0.03964287                
0.22853000                0.15384842                0.03262551                
0.34080524                0.20669146                0.04322289                
0.22244465                0.12399210                0.02378979                
0.00688265                0.00360923                0.00076146                
0.00000159                0.00000072                0.00000012                
0.00000000                0.00000000                0.00000000                
0.00000000                0.24812410                0.05315190                
0.05018152                0.25170547                0.05018152                
0.08754438                0.25306158                0.04486165                
0.12034648                0.24786893                0.04185713                
0.15544591                0.24448037                0.04078769                