# vtk DataFile Version 2.0
Mesh for Fierro
ASCII 
DATASET UNSTRUCTURED_GRID

POINTS 845 float
0.000000 0.000000 0.000000
0.279477 0.000000 0.000000
0.483289 0.000000 0.000000
0.617430 0.000000 0.000000
0.709259 0.000000 0.000000
0.776022 0.000000 0.000000
0.829640 0.000000 0.000000
0.870338 0.000000 0.000000
0.903189 0.000000 0.000000
0.930317 0.000000 0.000000
0.955111 0.000000 0.000000
0.977585 0.000000 0.000000
1.000000 0.000000 0.000000
0.000000 0.022416 0.000000
0.275377 0.027574 0.000000
0.477225 0.040967 0.000000
0.608972 0.062818 0.000000
0.699676 0.090378 0.000000
0.763611 0.119533 0.000000
0.814562 0.152089 0.000000
0.853707 0.184672 0.000000
0.886501 0.217028 0.000000
0.916329 0.243181 0.000000
0.944495 0.262164 0.000000
0.972426 0.275377 0.000000
1.000000 0.279477 0.000000
0.000000 0.044889 0.000000
0.262164 0.055505 0.000000
0.458178 0.080578 0.000000
0.585311 0.120981 0.000000
0.672168 0.169731 0.000000
0.733100 0.222102 0.000000
0.778720 0.279333 0.000000
0.816866 0.333898 0.000000
0.849461 0.387039 0.000000
0.883930 0.427947 0.000000
0.919422 0.458178 0.000000
0.959034 0.477225 0.000000
1.000000 0.483289 0.000000
0.000000 0.069683 0.000000
0.243181 0.083670 0.000000
0.427947 0.116070 0.000000
0.547992 0.170974 0.000000
0.628602 0.234755 0.000000
0.683090 0.301833 0.000000
0.720259 0.372582 0.000000
0.754855 0.437109 0.000000
0.786486 0.498677 0.000000
0.829026 0.547992 0.000000
0.879019 0.585311 0.000000
0.937183 0.608972 0.000000
1.000000 0.617430 0.000000
0.000000 0.096811 0.000000
0.217028 0.113499 0.000000
0.387039 0.150539 0.000000
0.498677 0.213514 0.000000
0.574759 0.287440 0.000000
0.620497 0.363661 0.000000
0.650476 0.441416 0.000000
0.681319 0.510906 0.000000
0.712560 0.574759 0.000000
0.765245 0.628602 0.000000
0.830269 0.672168 0.000000
0.909622 0.699676 0.000000
1.000000 0.709259 0.000000
0.000000 0.129662 0.000000
0.184672 0.146293 0.000000
0.333898 0.183134 0.000000
0.437109 0.245145 0.000000
0.510906 0.318681 0.000000
0.550341 0.395553 0.000000
0.576955 0.474767 0.000000
0.604447 0.550341 0.000000
0.636339 0.620497 0.000000
0.698167 0.683090 0.000000
0.777898 0.733100 0.000000
0.880468 0.763611 0.000000
1.000000 0.776022 0.000000
0.000000 0.170360 0.000000
0.152089 0.185438 0.000000
0.279333 0.221280 0.000000
0.372582 0.279741 0.000000
0.441416 0.349524 0.000000
0.474767 0.423045 0.000000
0.500000 0.500000 0.000000
0.525233 0.576955 0.000000
0.558584 0.650476 0.000000
0.627418 0.720259 0.000000
0.720667 0.778720 0.000000
0.847912 0.814562 0.000000
1.000000 0.829640 0.000000
0.000000 0.223978 0.000000
0.119533 0.236389 0.000000
0.222102 0.266900 0.000000
0.301833 0.316910 0.000000
0.363661 0.379503 0.000000
0.395553 0.449659 0.000000
0.423045 0.525233 0.000000
0.449659 0.604447 0.000000
0.489094 0.681319 0.000000
0.562891 0.754855 0.000000
0.666102 0.816866 0.000000
0.815328 0.853707 0.000000
1.000000 0.870338 0.000000
0.000000 0.290741 0.000000
0.090378 0.300324 0.000000
0.169731 0.327832 0.000000
0.234755 0.371398 0.000000
0.287440 0.425241 0.000000
0.318681 0.489094 0.000000
0.349524 0.558584 0.000000
0.379503 0.636339 0.000000
0.425241 0.712560 0.000000
0.501323 0.786486 0.000000
0.612961 0.849461 0.000000
0.782973 0.886501 0.000000
1.000000 0.903189 0.000000
0.000000 0.382570 0.000000
0.062818 0.391028 0.000000
0.120981 0.414689 0.000000
0.170974 0.452008 0.000000
0.213514 0.501323 0.000000
0.245145 0.562891 0.000000
0.279741 0.627418 0.000000
0.316910 0.698167 0.000000
0.371398 0.765245 0.000000
0.452008 0.829026 0.000000
0.572053 0.883930 0.000000
0.756820 0.916330 0.000000
1.000000 0.930317 0.000000
0.000000 0.516711 0.000000
0.040967 0.522775 0.000000
0.080578 0.541822 0.000000
0.116070 0.572053 0.000000
0.150539 0.612961 0.000000
0.183134 0.666102 0.000000
0.221280 0.720667 0.000000
0.266900 0.777898 0.000000
0.327832 0.830269 0.000000
0.414689 0.879019 0.000000
0.541822 0.919422 0.000000
0.737836 0.944495 0.000000
1.000000 0.955111 0.000000
0.000000 0.720524 0.000000
0.027574 0.724624 0.000000
0.055505 0.737836 0.000000
0.083670 0.756820 0.000000
0.113499 0.782973 0.000000
0.146293 0.815328 0.000000
0.185438 0.847912 0.000000
0.236389 0.880468 0.000000
0.300324 0.909622 0.000000
0.391028 0.937182 0.000000
0.522775 0.959034 0.000000
0.724624 0.972426 0.000000
1.000000 0.977585 0.000000
0.000000 1.000000 0.000000
0.022415 1.000000 0.000000
0.044889 1.000000 0.000000
0.069683 1.000000 0.000000
0.096811 1.000000 0.000000
0.129662 1.000000 0.000000
0.170360 1.000000 0.000000
0.223978 1.000000 0.000000
0.290741 1.000000 0.000000
0.382570 1.000000 0.000000
0.516711 1.000000 0.000000
0.720524 1.000000 0.000000
1.000000 1.000000 0.000000
0.000000 0.000000 0.082500
0.279477 0.000000 0.082500
0.483289 0.000000 0.082500
0.617430 0.000000 0.082500
0.709259 0.000000 0.082500
0.776022 0.000000 0.082500
0.829640 0.000000 0.082500
0.870338 0.000000 0.082500
0.903189 0.000000 0.082500
0.930317 0.000000 0.082500
0.955111 0.000000 0.082500
0.977585 0.000000 0.082500
1.000000 0.000000 0.082500
0.000000 0.022416 0.082500
0.275377 0.027574 0.082500
0.477225 0.040967 0.082500
0.608972 0.062818 0.082500
0.699676 0.090378 0.082500
0.763611 0.119533 0.082500
0.814562 0.152089 0.082500
0.853707 0.184672 0.082500
0.886501 0.217028 0.082500
0.916329 0.243181 0.082500
0.944495 0.262164 0.082500
0.972426 0.275377 0.082500
1.000000 0.279477 0.082500
0.000000 0.044889 0.082500
0.262164 0.055505 0.082500
0.458178 0.080578 0.082500
0.585311 0.120981 0.082500
0.672168 0.169731 0.082500
0.733100 0.222102 0.082500
0.778720 0.279333 0.082500
0.816866 0.333898 0.082500
0.849461 0.387039 0.082500
0.883930 0.427947 0.082500
0.919422 0.458178 0.082500
0.959034 0.477225 0.082500
1.000000 0.483289 0.082500
0.000000 0.069683 0.082500
0.243181 0.083670 0.082500
0.427947 0.116070 0.082500
0.547992 0.170974 0.082500
0.628602 0.234755 0.082500
0.683090 0.301833 0.082500
0.720259 0.372582 0.082500
0.754855 0.437109 0.082500
0.786486 0.498677 0.082500
0.829026 0.547992 0.082500
0.879019 0.585311 0.082500
0.937183 0.608972 0.082500
1.000000 0.617430 0.082500
0.000000 0.096811 0.082500
0.217028 0.113499 0.082500
0.387039 0.150539 0.082500
0.498677 0.213514 0.082500
0.574759 0.287440 0.082500
0.620497 0.363661 0.082500
0.650476 0.441416 0.082500
0.681319 0.510906 0.082500
0.712560 0.574759 0.082500
0.765245 0.628602 0.082500
0.830269 0.672168 0.082500
0.909622 0.699676 0.082500
1.000000 0.709259 0.082500
0.000000 0.129662 0.082500
0.184672 0.146293 0.082500
0.333898 0.183134 0.082500
0.437109 0.245145 0.082500
0.510906 0.318681 0.082500
0.550341 0.395553 0.082500
0.576955 0.474767 0.082500
0.604447 0.550341 0.082500
0.636339 0.620497 0.082500
0.698167 0.683090 0.082500
0.777898 0.733100 0.082500
0.880468 0.763611 0.082500
1.000000 0.776022 0.082500
0.000000 0.170360 0.082500
0.152089 0.185438 0.082500
0.279333 0.221280 0.082500
0.372582 0.279741 0.082500
0.441416 0.349524 0.082500
0.474767 0.423045 0.082500
0.500000 0.500000 0.082500
0.525233 0.576955 0.082500
0.558584 0.650476 0.082500
0.627418 0.720259 0.082500
0.720667 0.778720 0.082500
0.847912 0.814562 0.082500
1.000000 0.829640 0.082500
0.000000 0.223978 0.082500
0.119533 0.236389 0.082500
0.222102 0.266900 0.082500
0.301833 0.316910 0.082500
0.363661 0.379503 0.082500
0.395553 0.449659 0.082500
0.423045 0.525233 0.082500
0.449659 0.604447 0.082500
0.489094 0.681319 0.082500
0.562891 0.754855 0.082500
0.666102 0.816866 0.082500
0.815328 0.853707 0.082500
1.000000 0.870338 0.082500
0.000000 0.290741 0.082500
0.090378 0.300324 0.082500
0.169731 0.327832 0.082500
0.234755 0.371398 0.082500
0.287440 0.425241 0.082500
0.318681 0.489094 0.082500
0.349524 0.558584 0.082500
0.379503 0.636339 0.082500
0.425241 0.712560 0.082500
0.501323 0.786486 0.082500
0.612961 0.849461 0.082500
0.782973 0.886501 0.082500
1.000000 0.903189 0.082500
0.000000 0.382570 0.082500
0.062818 0.391028 0.082500
0.120981 0.414689 0.082500
0.170974 0.452008 0.082500
0.213514 0.501323 0.082500
0.245145 0.562891 0.082500
0.279741 0.627418 0.082500
0.316910 0.698167 0.082500
0.371398 0.765245 0.082500
0.452008 0.829026 0.082500
0.572053 0.883930 0.082500
0.756820 0.916330 0.082500
1.000000 0.930317 0.082500
0.000000 0.516711 0.082500
0.040967 0.522775 0.082500
0.080578 0.541822 0.082500
0.116070 0.572053 0.082500
0.150539 0.612961 0.082500
0.183134 0.666102 0.082500
0.221280 0.720667 0.082500
0.266900 0.777898 0.082500
0.327832 0.830269 0.082500
0.414689 0.879019 0.082500
0.541822 0.919422 0.082500
0.737836 0.944495 0.082500
1.000000 0.955111 0.082500
0.000000 0.720524 0.082500
0.027574 0.724624 0.082500
0.055505 0.737836 0.082500
0.083670 0.756820 0.082500
0.113499 0.782973 0.082500
0.146293 0.815328 0.082500
0.185438 0.847912 0.082500
0.236389 0.880468 0.082500
0.300324 0.909622 0.082500
0.391028 0.937182 0.082500
0.522775 0.959034 0.082500
0.724624 0.972426 0.082500
1.000000 0.977585 0.082500
0.000000 1.000000 0.082500
0.022415 1.000000 0.082500
0.044889 1.000000 0.082500
0.069683 1.000000 0.082500
0.096811 1.000000 0.082500
0.129662 1.000000 0.082500
0.170360 1.000000 0.082500
0.223978 1.000000 0.082500
0.290741 1.000000 0.082500
0.382570 1.000000 0.082500
0.516711 1.000000 0.082500
0.720524 1.000000 0.082500
1.000000 1.000000 0.082500
0.000000 0.000000 0.165000
0.279477 0.000000 0.165000
0.483289 0.000000 0.165000
0.617430 0.000000 0.165000
0.709259 0.000000 0.165000
0.776022 0.000000 0.165000
0.829640 0.000000 0.165000
0.870338 0.000000 0.165000
0.903189 0.000000 0.165000
0.930317 0.000000 0.165000
0.955111 0.000000 0.165000
0.977585 0.000000 0.165000
1.000000 0.000000 0.165000
0.000000 0.022416 0.165000
0.275377 0.027574 0.165000
0.477225 0.040967 0.165000
0.608972 0.062818 0.165000
0.699676 0.090378 0.165000
0.763611 0.119533 0.165000
0.814562 0.152089 0.165000
0.853707 0.184672 0.165000
0.886501 0.217028 0.165000
0.916329 0.243181 0.165000
0.944495 0.262164 0.165000
0.972426 0.275377 0.165000
1.000000 0.279477 0.165000
0.000000 0.044889 0.165000
0.262164 0.055505 0.165000
[...]
POINT_DATA 845 
VECTORS pos float 
0.000000 0.000000 0.000000
0.279477 0.000000 0.000000
0.483289 0.000000 0.000000
0.617430 0.000000 0.000000
0.709259 0.000000 0.000000
0.776022 0.000000 0.000000
0.829640 0.000000 0.000000
0.870338 0.000000 0.000000
0.903189 0.000000 0.000000
0.930317 0.000000 0.000000
0.955111 0.000000 0.000000
0.977585 0.000000 0.000000
1.000000 0.000000 0.000000
0.000000 0.022416 0.000000
0.275377 0.027574 0.000000
0.477225 0.040967 0.000000
0.608972 0.062818 0.000000
0.699676 0.090378 0.000000
0.763611 0.119533 0.000000
0.814562 0.152089 0.000000
0.853707 0.184672 0.000000
0.886501 0.217028 0.000000
0.916329 0.243181 0.000000
0.944495 0.262164 0.000000
0.972426 0.275377 0.000000
1.000000 0.279477 0.000000
0.000000 0.044889 0.000000
0.262164 0.055505 0.000000
0.458178 0.080578 0.000000
0.585311 0.120981 0.000000
0.672168 0.169731 0.000000
0.733100 0.222102 0.000000
0.778720 0.279333 0.000000
0.816866 0.333898 0.000000
0.849461 0.387039 0.000000
0.883930 0.427947 0.000000
0.919422 0.458178 0.000000
0.959034 0.477225 0.000000
1.000000 0.483289 0.000000
0.000000 0.069683 0.000000
0.243181 0.083670 0.000000
0.427947 0.116070 0.000000
0.547992 0.170974 0.000000
0.628602 0.234755 0.000000
0.683090 0.301833 0.000000
0.720259 0.372582 0.000000
0.754855 0.437109 0.000000
0.786486 0.498677 0.000000
0.829026 0.547992 0.000000
0.879019 0.585311 0.000000
0.937183 0.608972 0.000000
1.000000 0.617430 0.000000
0.000000 0.096811 0.000000
0.217028 0.113499 0.000000
0.387039 0.150539 0.000000
0.498677 0.213514 0.000000
0.574759 0.287440 0.000000
0.620497 0.363661 0.000000
0.650476 0.441416 0.000000
0.681319 0.510906 0.000000
0.712560 0.574759 0.000000
0.765245 0.628602 0.000000
0.830269 0.672168 0.000000
0.909622 0.699676 0.000000
1.000000 0.709259 0.000000
0.000000 0.129662 0.000000
0.184672 0.146293 0.000000
0.333898 0.183134 0.000000
0.437109 0.245145 0.000000
0.510906 0.318681 0.000000
0.550341 0.395553 0.000000
0.576955 0.474767 0.000000
0.604447 0.550341 0.000000
0.636339 0.620497 0.000000
0.698167 0.683090 0.000000
0.777898 0.733100 0.000000
0.880468 0.763611 0.000000
1.000000 0.776022 0.000000
0.000000 0.170360 0.000000
0.152089 0.185438 0.000000
0.279333 0.221280 0.000000
0.372582 0.279741 0.000000
0.441416 0.349524 0.000000
0.474767 0.423045 0.000000
0.500000 0.500000 0.000000
0.525233 0.576955 0.000000
0.558584 0.650476 0.000000
0.627418 0.720259 0.000000
0.720667 0.778720 0.000000
0.847912 0.814562 0.000000
1.000000 0.829640 0.000000
0.000000 0.223978 0.000000
0.119533 0.236389 0.000000
0.222102 0.266900 0.000000
0.301833 0.316910 0.000000
0.363661 0.379503 0.000000
0.395553 0.449659 0.000000
0.423045 0.525233 0.000000
0.449659 0.604447 0.000000
0.489094 0.681319 0.000000
0.562891 0.754855 0.000000
0.666102 0.816866 0.000000
0.815328 0.853707 0.000000
1.000000 0.870338 0.000000
0.000000 0.290741 0.000000
0.090378 0.300324 0.000000
0.169731 0.327832 0.000000
0.234755 0.371398 0.000000
0.287440 0.425241 0.000000
0.318681 0.489094 0.000000
0.349524 0.558584 0.000000
0.379503 0.636339 0.000000
0.425241 0.712560 0.000000
0.501323 0.786486 0.000000
0.612961 0.849461 0.000000
0.782973 0.886501 0.000000
1.000000 0.903189 0.000000
0.000000 0.382570 0.000000
0.062818 0.391028 0.000000
0.120981 0.414689 0.000000
0.170974 0.452008 0.000000
0.213514 0.501323 0.000000
0.245145 0.562891 0.000000
0.279741 0.627418 0.000000
0.316910 0.698167 0.000000
0.371398 0.765245 0.000000
0.452008 0.829026 0.000000
0.572053 0.883930 0.000000
0.756820 0.916330 0.000000
1.000000 0.930317 0.000000
0.000000 0.516711 0.000000
0.040967 0.522775 0.000000
0.080578 0.541822 0.000000
0.116070 0.572053 0.000000
0.150539 0.612961 0.000000
0.183134 0.666102 0.000000
0.221280 0.720667 0.000000
0.266900 0.777898 0.000000
0.327832 0.830269 0.000000
0.414689 0.879019 0.000000
0.541822 0.919422 0.000000
0.737836 0.944495 0.000000
1.000000 0.955111 0.000000
0.000000 0.720524 0.000000
0.027574 0.724624 0.000000
0.055505 0.737836 0.000000
0.083670 0.756820 0.000000
0.113499 0.782973 0.000000
0.146293 0.815328 0.000000
0.185438 0.847912 0.000000
0.236389 0.880468 0.000000
0.300324 0.909622 0.000000
0.391028 0.937182 0.000000
0.522775 0.959034 0.000000
0.724624 0.972426 0.000000
1.000000 0.977585 0.000000
0.000000 1.000000 0.000000
0.022415 1.000000 0.000000
0.044889 1.000000 0.000000
0.069683 1.000000 0.000000
0.096811 1.000000 0.000000
0.129662 1.000000 0.000000
0.170360 1.000000 0.000000
0.223978 1.000000 0.000000
0.290741 1.000000 0.000000
0.382570 1.000000 0.000000
0.516711 1.000000 0.000000
0.720524 1.000000 0.000000
1.000000 1.000000 0.000000
0.000000 0.000000 0.082500
0.279477 0.000000 0.082500
0.483289 0.000000 0.082500
0.617430 0.000000 0.082500
0.709259 0.000000 0.082500
0.776022 0.000000 0.082500
0.829640 0.000000 0.082500
0.870338 0.000000 0.082500
0.903189 0.000000 0.082500
0.930317 0.000000 0.082500
0.955111 0.000000 0.082500
0.977585 0.000000 0.082500
1.000000 0.000000 0.082500
0.000000 0.022416 0.082500
0.275377 0.027574 0.082500
0.477225 0.040967 0.082500
0.608972 0.062818 0.082500
0.699676 0.090378 0.082500
0.763611 0.119533 0.082500
0.814562 0.152089 0.082500
0.853707 0.184672 0.082500
0.886501 0.217028 0.082500
0.916329 0.243181 0.082500
0.944495 0.262164 0.082500
0.972426 0.275377 0.082500
1.000000 0.279477 0.082500
0.000000 0.044889 0.082500
0.262164 0.055505 0.082500
0.458178 0.080578 0.082500
0.585311 0.120981 0.082500
0.672168 0.169731 0.082500
0.733100 0.222102 0.082500
0.778720 0.279333 0.082500
0.816866 0.333898 0.082500
0.849461 0.387039 0.082500
0.883930 0.427947 0.082500
0.919422 0.458178 0.082500
0.959034 0.477225 0.082500
1.000000 0.483289 0.082500
0.000000 0.069683 0.082500
0.243181 0.083670 0.082500
0.427947 0.116070 0.082500
0.547992 0.170974 0.082500
0.628602 0.234755 0.082500
0.683090 0.301833 0.082500
0.720259 0.372582 0.082500
0.754855 0.437109 0.082500
0.786486 0.498677 0.082500
0.829026 0.547992 0.082500
0.879019 0.585311 0.082500
0.937183 0.608972 0.082500
1.000000 0.617430 0.082500
0.000000 0.096811 0.082500
0.217028 0.113499 0.082500
0.387039 0.150539 0.082500
0.498677 0.213514 0.082500
0.574759 0.287440 0.082500
0.620497 0.363661 0.082500
0.650476 0.441416 0.082500
0.681319 0.510906 0.082500
0.712560 0.574759 0.082500
0.765245 0.628602 0.082500
0.830269 0.672168 0.082500
0.909622 0.699676 0.082500
1.000000 0.709259 0.082500
0.000000 0.129662 0.082500
0.184672 0.146293 0.082500
0.333898 0.183134 0.082500
0.437109 0.245145 0.082500
0.510906 0.318681 0.082500
0.550341 0.395553 0.082500
0.576955 0.474767 0.082500
0.604447 0.550341 0.082500
0.636339 0.620497 0.082500
0.698167 0.683090 0.082500
0.777898 0.733100 0.082500
0.880468 0.763611 0.082500
1.000000 0.776022 0.082500
0.000000 0.170360 0.082500
0.152089 0.185438 0.082500
0.279333 0.221280 0.082500
0.372582 0.279741 0.082500
0.441416 0.349524 0.082500
0.474767 0.423045 0.082500
0.500000 0.500000 0.082500
0.525233 0.576955 0.082500
0.558584 0.650476 0.082500
0.627418 0.720259 0.082500
0.720667 0.778720 0.082500
0.847912 0.814562 0.082500
1.000000 0.829640 0.082500
0.000000 0.223978 0.082500
0.119533 0.236389 0.082500
0.222102 0.266900 0.082500
0.301833 0.316910 0.082500
0.363661 0.379503 0.082500
0.395553 0.449659 0.082500
0.423045 0.525233 0.082500
0.449659 0.604447 0.082500
0.489094 0.681319 0.082500
0.562891 0.754855 0.082500
0.666102 0.816866 0.082500
0.815328 0.853707 0.082500
1.000000 0.870338 0.082500
0.000000 0.290741 0.082500
0.090378 0.300324 0.082500
0.169731 0.327832 0.082500
0.234755 0.371398 0.082500
0.287440 0.425241 0.082500
0.318681 0.489094 0.082500
0.349524 0.558584 0.082500
0.379503 0.636339 0.082500
0.425241 0.712560 0.082500
0.501323 0.786486 0.082500
0.612961 0.849461 0.082500
0.782973 0.886501 0.082500
1.000000 0.903189 0.082500
0.000000 0.382570 0.082500
0.062818 0.391028 0.082500
0.120981 0.414689 0.082500
0.170974 0.452008 0.082500
0.213514 0.501323 0.082500
0.245145 0.562891 0.082500
0.279741 0.627418 0.082500
0.316910 0.698167 0.082500
0.371398 0.765245 0.082500
0.452008 0.829026 0.082500
0.572053 0.883930 0.082500
0.756820 0.916330 0.082500
1.000000 0.930317 0.082500
0.000000 0.516711 0.082500
0.040967 0.522775 0.082500
0.080578 0.541822 0.082500
0.116070 0.572053 0.082500
0.150539 0.612961 0.082500
0.183134 0.666102 0.082500
0.221280 0.720667 0.082500
0.266900 0.777898 0.082500
0.327832 0.830269 0.082500
0.414689 0.879019 0.082500
0.541822 0.919422 0.082500
0.737836 0.944495 0.082500
1.000000 0.955111 0.082500
0.000000 0.720524 0.082500
0.027574 0.724624 0.082500
0.055505 0.737836 0.082500
0.083670 0.756820 0.082500
0.113499 0.782973 0.082500
0.146293 0.815328 0.082500
0.185438 0.847912 0.082500
0.236389 0.880468 0.082500
0.300324 0.909622 0.082500
0.391028 0.937182 0.082500
0.522775 0.959034 0.082500
0.724624 0.972426 0.082500
1.000000 0.977585 0.082500
0.000000 1.000000 0.082500
0.022415 1.000000 0.082500
0.044889 1.000000 0.082500
0.069683 1.000000 0.082500
0.096811 1.000000 0.082500
0.129662 1.000000 0.082500
0.170360 1.000000 0.082500
0.223978 1.000000 0.082500
0.290741 1.000000 0.082500
0.382570 1.000000 0.082500
0.516711 1.000000 0.082500
0.720524 1.000000 0.082500
1.000000 1.000000 0.082500
0.000000 0.000000 0.165000
0.279477 0.000000 0.165000
0.483289 0.000000 0.165000
0.617430 0.000000 0.165000
0.709259 0.000000 0.165000
0.776022 0.000000 0.165000
0.829640 0.000000 0.165000
0.870338 0.000000 0.165000
0.903189 0.000000 0.165000
0.930317 0.000000 0.165000
0.955111 0.000000 0.165000
0.977585 0.000000 0.165000
1.000000 0.000000 0.165000
0.000000 0.022416 0.165000
0.275377 0.027574 0.165000
0.477225 0.040967 0.165000
0.608972 0.062818 0.165000
0.699676 0.090378 0.165000
0.763611 0.119533 0.165000
0.814562 0.152089 0.165000
0.853707 0.184672 0.165000
0.886501 0.217028 0.165000
0.916329 0.243181 0.165000
0.944495 0.262164 0.165000
0.972426 0.275377 0.165000
1.000000 0.279477 0.165000
0.000000 0.044889 0.165000
0.262164 0.055505 0.165000
0.458178 0.080578 0.165000
0.585311 0.120981 0.165000
0.672168 0.169731 0.165000
0.733100 0.222102 0.165000
0.778720 0.279333 0.165000
0.816866 0.333898 0.165000
0.849461 0.387039 0.165000
0.883930 0.427947 0.165000
0.919422 0.458178 0.165000
0.959034 0.477225 0.165000
1.000000 0.483289 0.165000
0.000000 0.069683 0.165000
0.243181 0.083670 0.165000
0.427947 0.116070 0.165000
0.547992 0.170974 0.165000
0.628602 0.234755 0.165000
0.683090 0.301833 0.165000
0.720259 0.372582 0.165000
0.754855 0.437109 0.165000
0.786486 0.498677 0.165000
0.829026 0.547992 0.165000
0.879019 0.585311 0.165000
0.937183 0.608972 0.165000
1.000000 0.617430 0.165000
0.000000 0.096811 0.165000
0.217028 0.113499 0.165000
0.387039 0.150539 0.165000
0.498677 0.213514 0.165000
0.574759 0.287440 0.165000
0.620497 0.363661 0.165000
0.650476 0.441416 0.165000
0.681319 0.510906 0.165000
0.712560 0.574759 0.165000
0.765245 0.628602 0.165000
0.830269 0.672168 0.165000
0.909622 0.699676 0.165000
1.000000 0.709259 0.165000
0.000000 0.129662 0.165000
0.184672 0.146293 0.165000
0.333898 0.183134 0.165000
0.437109 0.245145 0.165000
0.510906 0.318681 0.165000
0.550341 0.395553 0.165000
0.576955 0.474767 0.165000
0.604447 0.550341 0.165000
0.636339 0.620497 0.165000
0.698167 0.683090 0.165000
0.777898 0.733100 0.165000
0.880468 0.763611 0.165000
1.000000 0.776022 0.165000
0.000000 0.170360 0.165000
0.152089 0.185438 0.165000
0.279333 0.221280 0.165000
0.372582 0.279741 0.165000
0.441416 0.349524 0.165000
0.474767 0.423045 0.165000
0.500000 0.500000 0.165000
0.525233 0.576955 0.165000
0.558584 0.650476 0.165000
0.627418 0.720259 0.165000
0.720667 0.778720 0.165000
0.847912 0.814562 0.165000
1.000000 0.829640 0.165000
0.000000 0.223978 0.165000
0.119533 0.236389 0.165000
0.222102 0.266900 0.165000
0.301833 0.316910 0.165000
0.363661 0.379503 0.165000
0.395553 0.449659 0.165000
0.423045 0.525233 0.165000
0.449659 0.604447 0.165000
0.489094 0.681319 0.165000
0.562891 0.754855 0.165000
0.666102 0.816866 0.165000
0.815328 0.853707 0.165000
1.000000 0.870338 0.165000
0.000000 0.290741 0.165000
0.090378 0.300324 0.165000
0.169731 0.327832 0.165000
0.234755 0.371398 0.165000
0.287440 0.425241 0.165000
0.318681 0.489094 0.165000
0.349524 0.558584 0.165000
0.379503 0.636339 0.165000
0.425241 0.712560 0.165000
0.501323 0.786486 0.165000
0.612961 0.849461 0.165000
0.782973 0.886501 0.165000
1.000000 0.903189 0.165000
0.000000 0.382570 0.165000
0.062818 0.391028 0.165000
0.120981 0.414689 0.165000
0.170974 0.452008 0.165000
0.213514 0.501323 0.165000
0.245145 0.562891 0.165000
0.279741 0.627418 0.165000
0.316910 0.698167 0.165000
0.371398 0.765245 0.165000
0.452008 0.829026 0.165000
0.572053 0.883930 0.165000
0.756820 0.916330 0.165000
1.000000 0.930317 0.165000
0.000000 0.516711 0.165000
0.040967 0.522775 0.165000
0.080578 0.541822 0.165000
0.116070 0.572053 0.165000
0.150539 0.612961 0.165000
0.183134 0.666102 0.165000
0.221280 0.720667 0.165000
0.266900 0.777898 0.165000
0.327832 0.830269 0.165000
0.414689 0.879019 0.165000
0.541822 0.919422 0.165000
0.737836 0.944495 0.165000
1.000000 0.955111 0.165000
0.000000 0.720524 0.165000
0.027574 0.724624 0.165000
0.055505 0.737836 0.165000
0.083670 0.756820 0.165000
0.113499 0.782973 0.165000
0.146293 0.815328 0.165000
0.185438 0.847912 0.165000
0.236389 0.880468 0.165000
0.300324 0.909622 0.165000
0.391028 0.937182 0.165000
0.522775 0.959034 0.165000
0.724624 0.972426 0.165000
1.000000 0.977585 0.165000
0.000000 1.000000 0.165000
0.022415 1.000000 0.165000
0.044889 1.000000 0.165000
0.069683 1.000000 0.165000
0.096811 1.000000 0.165000
0.129662 1.000000 0.165000
0.170360 1.000000 0.165000
0.223978 1.000000 0.165000
0.290741 1.000000 0.165000
0.382570 1.000000 0.165000
0.516711 1.000000 0.165000
0.720524 1.000000 0.165000
1.000000 1.000000 0.165000
0.000000 0.000000 0.247500
0.279477 0.000000 0.247500
0.483289 0.000000 0.247500
0.617430 0.000000 0.247500
0.709259 0.000000 0.247500
0.776022 0.000000 0.247500
0.829640 0.000000 0.247500
0.870338 0.000000 0.247500
0.903189 0.000000 0.247500
0.930317 0.000000 0.247500
0.955111 0.000000 0.247500
0.977585 0.000000 0.247500
1.000000 0.000000 0.247500
0.000000 0.022416 0.247500
0.275377 0.027574 0.247500
0.477225 0.040967 0.247500
0.608972 0.062818 0.247500
0.699676 0.090378 0.247500
0.763611 0.119533 0.247500
0.814562 0.152089 0.247500
0.853707 0.184672 0.247500
0.886501 0.217028 0.247500
0.916329 0.243181 0.247500
0.944495 0.262164 0.247500
0.972426 0.275377 0.247500
1.000000 0.279477 0.247500
0.000000 0.044889 0.247500
0.262164 0.055505 0.247500
0.458178 0.080578 0.247500
0.585311 0.120981 0.247500
0.672168 0.169731 0.247500
0.733100 0.222102 0.247500
0.778720 0.279333 0.247500
0.816866 0.333898 0.247500
0.849461 0.387039 0.247500
0.883930 0.427947 0.247500
0.919422 0.458178 0.247500
0.959034 0.477225 0.247500
1.000000 0.483289 0.247500
0.000000 0.069683 0.247500
0.243181 0.083670 0.247500
0.427947 0.116070 0.247500
0.547992 0.170974 0.247500
0.628602 0.234755 0.247500
0.683090 0.301833 0.247500
0.720259 0.372582 0.247500
0.754855 0.437109 0.247500
0.786486 0.498677 0.247500
0.829026 0.547992 0.247500
0.879019 0.585311 0.247500
0.937183 0.608972 0.247500
1.000000 0.617430 0.247500
0.000000 0.096811 0.247500
0.217028 0.113499 0.247500
0.387039 0.150539 0.247500
0.498677 0.213514 0.247500
0.574759 0.287440 0.247500
0.620497 0.363661 0.247500
0.650476 0.441416 0.247500
0.681319 0.510906 0.247500
0.712560 0.574759 0.247500
0.765245 0.628602 0.247500
0.830269 0.672168 0.247500
0.909622 0.699676 0.247500
1.000000 0.709259 0.247500
0.000000 0.129662 0.247500
0.184672 0.146293 0.247500
0.333898 0.183134 0.247500
0.437109 0.245145 0.247500
0.510906 0.318681 0.247500
0.550341 0.395553 0.247500
0.576955 0.474767 0.247500
0.604447 0.550341 0.247500
0.636339 0.620497 0.247500
0.698167 0.683090 0.247500
0.777898 0.733100 0.247500
0.880468 0.763611 0.247500
1.000000 0.776022 0.247500
0.000000 0.170360 0.247500
0.152089 0.185438 0.247500
0.279333 0.221280 0.247500
0.372582 0.279741 0.247500
0.441416 0.349524 0.247500
0.474767 0.423045 0.247500
0.500000 0.500000 0.247500
0.525233 0.576955 0.247500
0.558584 0.650476 0.247500
0.627418 0.720259 0.247500
0.720667 0.778720 0.247500
0.847912 0.814562 0.247500
1.000000 0.829640 0.247500
0.000000 0.223978 0.247500
0.119533 0.236389 0.247500
0.222102 0.266900 0.247500
0.301833 0.316910 0.247500
0.363661 0.379503 0.247500
0.395553 0.449659 0.247500
0.423045 0.525233 0.247500
0.449659 0.604447 0.247500
0.489094 0.681319 0.247500
0.562891 0.754855 0.247500
0.666102 0.816866 0.247500
0.815328 0.853707 0.247500
1.000000 0.870338 0.247500
0.000000 0.290741 0.247500
0.090378 0.300324 0.247500
0.169731 0.327832 0.247500
0.234755 0.371398 0.247500
0.287440 0.425241 0.247500
0.318681 0.489094 0.247500
0.349524 0.558584 0.247500
0.379503 0.636339 0.247500
0.425241 0.712560 0.247500
0.501323 0.786486 0.247500
0.612961 0.849461 0.247500
0.782973 0.886501 0.247500
1.000000 0.903189 0.247500
0.000000 0.382570 0.247500
0.062818 0.391028 0.247500
0.120981 0.414689 0.247500
0.170974 0.452008 0.247500
0.213514 0.501323 0.247500
0.245145 0.562891 0.247500
0.279741 0.627418 0.247500
0.316910 0.698167 0.247500
0.371398 0.765245 0.247500
0.452008 0.829026 0.247500
0.572053 0.883930 0.247500
0.756820 0.916330 0.247500
1.000000 0.930317 0.247500
0.000000 0.516711 0.247500
0.040967 0.522775 0.247500
0.080578 0.541822 0.247500
0.116070 0.572053 0.247500
0.150539 0.612961 0.247500
0.183134 0.666102 0.247500
0.221280 0.720667 0.247500
0.266900 0.777898 0.247500
0.327832 0.830269 0.247500
0.414689 0.879019 0.247500
0.541822 0.919422 0.247500
0.737836 0.944495 0.247500
1.000000 0.955111 0.247500
0.000000 0.720524 0.247500
0.027574 0.724624 0.247500
0.055505 0.737836 0.247500
0.083670 0.756820 0.247500
0.113499 0.782973 0.247500
0.146293 0.815328 0.247500
0.185438 0.847912 0.247500
0.236389 0.880468 0.247500
0.300324 0.909622 0.247500
0.391028 0.937182 0.247500
0.522775 0.959034 0.247500
0.724624 0.972426 0.247500
1.000000 0.977585 0.247500
0.000000 1.000000 0.247500
0.022415 1.000000 0.247500
0.044889 1.000000 0.247500
0.069683 1.000000 0.247500
0.096811 1.000000 0.247500
0.129662 1.000000 0.247500
0.170360 1.000000 0.247500
0.223978 1.000000 0.247500
0.290741 1.000000 0.247500
0.382570 1.000000 0.247500
0.516711 1.000000 0.247500
0.720524 1.000000 0.247500
1.000000 1.000000 0.247500
0.000000 0.000000 0.330000
0.279477 0.000000 0.330000
0.483289 0.000000 0.330000
0.617430 0.000000 0.330000
0.709259 0.000000 0.330000
0.776022 0.000000 0.330000
0.829640 0.000000 0.330000
0.870338 0.000000 0.330000
0.903189 0.000000 0.330000
0.930317 0.000000 0.330000
0.955111 0.000000 0.330000
0.977585 0.000000 0.330000
1.000000 0.000000 0.330000
0.000000 0.022416 0.330000
0.275377 0.027574 0.330000
0.477225 0.040967 0.330000
0.608972 0.062818 0.330000
0.699676 0.090378 0.330000
0.763611 0.119533 0.330000
0.814562 0.152089 0.330000
0.853707 0.184672 0.330000
0.886501 0.217028 0.330000
0.916329 0.243181 0.330000
0.944495 0.262164 0.330000
0.972426 0.275377 0.330000
1.000000 0.279477 0.330000
0.000000 0.044889 0.330000
0.262164 0.055505 0.330000
0.458178 0.080578 0.330000
0.585311 0.120981 0.330000
0.672168 0.169731 0.330000
0.733100 0.222102 0.330000
0.778720 0.279333 0.330000
0.816866 0.333898 0.330000
0.849461 0.387039 0.330000
0.883930 0.427947 0.330000
0.919422 0.458178 0.330000
0.959034 0.477225 0.330000
1.000000 0.483289 0.330000
0.000000 0.069683 0.330000
0.243181 0.083670 0.330000
0.427947 0.116070 0.330000
0.547992 0.170974 0.330000
0.628602 0.234755 0.330000
0.683090 0.301833 0.330000
0.720259 0.372582 0.330000
0.754855 0.437109 0.330000
0.786486 0.498677 0.330000
0.829026 0.547992 0.330000
0.879019 0.585311 0.330000
0.937183 0.608972 0.330000
1.000000 0.617430 0.330000
0.000000 0.096811 0.330000
0.217028 0.113499 0.330000
0.387039 0.150539 0.330000
0.498677 0.213514 0.330000
0.574759 0.287440 0.330000
0.620497 0.363661 0.330000
0.650476 0.441416 0.330000
0.681319 0.510906 0.330000
0.712560 0.574759 0.330000
0.765245 0.628602 0.330000
0.830269 0.672168 0.330000