# vtk DataFile Version 2.0
Mesh for Fierro
ASCII 
DATASET UNSTRUCTURED_GRID

POINTS 845 float
0.000000 0.000000 0.000000
0.123588 0.000000 0.000000
0.242028 0.000000 0.000000
0.354477 0.000000 0.000000
0.456957 0.000000 0.000000
0.545498 0.000000 0.000000
0.626257 0.000000 0.000000
0.698426 0.000000 0.000000
0.765654 0.000000 0.000000
0.828823 0.000000 0.000000
0.889042 0.000000 0.000000
0.945710 0.000000 0.000000
1.000000 0.000000 0.000000
0.000000 0.054291 0.000000
0.122438 0.055589 0.000000
0.239881 0.058921 0.000000
0.351282 0.064555 0.000000
0.453200 0.071793 0.000000
0.541251 0.080204 0.000000
0.621997 0.088880 0.000000
0.694258 0.097525 0.000000
0.761668 0.106132 0.000000
0.825589 0.113303 0.000000
0.886627 0.118883 0.000000
0.944411 0.122439 0.000000
1.000000 0.123588 0.000000
0.000000 0.110958 0.000000
0.118883 0.113373 0.000000
0.233130 0.119807 0.000000
0.341884 0.130681 0.000000
0.442350 0.144422 0.000000
0.528860 0.160234 0.000000
0.608966 0.176537 0.000000
0.681831 0.192862 0.000000
0.750325 0.209025 0.000000
0.816534 0.222470 0.000000
0.880193 0.233130 0.000000
0.941079 0.239881 0.000000
1.000000 0.242028 0.000000
0.000000 0.171177 0.000000
0.113303 0.174411 0.000000
0.222470 0.183466 0.000000
0.326988 0.198309 0.000000
0.424727 0.217318 0.000000
0.509174 0.239432 0.000000
0.588523 0.262617 0.000000
0.662058 0.285633 0.000000
0.731639 0.308069 0.000000
0.801691 0.326988 0.000000
0.869319 0.341884 0.000000
0.935445 0.351282 0.000000
1.000000 0.354477 0.000000
0.000000 0.234346 0.000000
0.106132 0.238332 0.000000
0.209025 0.249675 0.000000
0.308069 0.268361 0.000000
0.402772 0.292112 0.000000
0.483972 0.319458 0.000000
0.562307 0.348067 0.000000
0.636718 0.376345 0.000000
0.707888 0.402772 0.000000
0.782682 0.424727 0.000000
0.855578 0.442350 0.000000
0.928207 0.453200 0.000000
1.000000 0.456957 0.000000
0.000000 0.301574 0.000000
0.097525 0.305742 0.000000
0.192862 0.318169 0.000000
0.285633 0.337942 0.000000
0.376345 0.363282 0.000000
0.454807 0.392413 0.000000
0.532182 0.423580 0.000000
0.607587 0.454807 0.000000
0.680542 0.483972 0.000000
0.760568 0.509174 0.000000
0.839766 0.528860 0.000000
0.919797 0.541251 0.000000
1.000000 0.545498 0.000000
0.000000 0.373743 0.000000
0.088880 0.378003 0.000000
0.176537 0.391034 0.000000
0.262617 0.411477 0.000000
0.348067 0.437693 0.000000
0.423580 0.467818 0.000000
0.500000 0.500000 0.000000
0.576420 0.532182 0.000000
0.651933 0.562307 0.000000
0.737383 0.588523 0.000000
0.823463 0.608966 0.000000
0.911120 0.621997 0.000000
1.000000 0.626257 0.000000
0.000000 0.454502 0.000000
0.080204 0.458749 0.000000
0.160234 0.471140 0.000000
0.239432 0.490826 0.000000
0.319458 0.516028 0.000000
0.392413 0.545193 0.000000
0.467818 0.576420 0.000000
0.545193 0.607587 0.000000
0.623655 0.636718 0.000000
0.714367 0.662058 0.000000
0.807138 0.681831 0.000000
0.902475 0.694258 0.000000
1.000000 0.698426 0.000000
0.000000 0.543043 0.000000
0.071793 0.546800 0.000000
0.144422 0.557650 0.000000
0.217318 0.575273 0.000000
0.292112 0.597228 0.000000
0.363282 0.623655 0.000000
0.437693 0.651933 0.000000
0.516028 0.680542 0.000000
0.597228 0.707888 0.000000
0.691931 0.731639 0.000000
0.790975 0.750325 0.000000
0.893868 0.761668 0.000000
1.000000 0.765654 0.000000
0.000000 0.645523 0.000000
0.064555 0.648718 0.000000
0.130681 0.658116 0.000000
0.198309 0.673012 0.000000
0.268361 0.691931 0.000000
0.337942 0.714367 0.000000
0.411477 0.737383 0.000000
0.490826 0.760568 0.000000
0.575273 0.782682 0.000000
0.673012 0.801691 0.000000
0.777530 0.816534 0.000000
0.886697 0.825589 0.000000
1.000000 0.828823 0.000000
0.000000 0.757972 0.000000
0.058921 0.760119 0.000000
0.119807 0.766870 0.000000
0.183466 0.777530 0.000000
0.249675 0.790975 0.000000
0.318169 0.807138 0.000000
0.391034 0.823463 0.000000
0.471140 0.839766 0.000000
0.557650 0.855578 0.000000
0.658116 0.869319 0.000000
0.766870 0.880193 0.000000
0.881117 0.886627 0.000000
1.000000 0.889042 0.000000
0.000000 0.876412 0.000000
0.055589 0.877562 0.000000
0.113373 0.881117 0.000000
0.174411 0.886697 0.000000
0.238332 0.893868 0.000000
0.305742 0.902475 0.000000
0.378003 0.911120 0.000000
0.458749 0.919797 0.000000
0.546800 0.928207 0.000000
0.648718 0.935445 0.000000
0.760119 0.941079 0.000000
0.877562 0.944411 0.000000
1.000000 0.945710 0.000000
0.000000 1.000000 0.000000
0.054291 1.000000 0.000000
0.110958 1.000000 0.000000
0.171177 1.000000 0.000000
0.234346 1.000000 0.000000
0.301574 1.000000 0.000000
0.373743 1.000000 0.000000
0.454502 1.000000 0.000000
0.543043 1.000000 0.000000
0.645523 1.000000 0.000000
0.757972 1.000000 0.000000
0.876412 1.000000 0.000000
1.000000 1.000000 0.000000
0.000000 0.000000 0.082500
0.123588 0.000000 0.082500
0.242028 0.000000 0.082500
0.354477 0.000000 0.082500
0.456957 0.000000 0.082500
0.545498 0.000000 0.082500
0.626257 0.000000 0.082500
0.698426 0.000000 0.082500
0.765654 0.000000 0.082500
0.828823 0.000000 0.082500
0.889042 0.000000 0.082500
0.945710 0.000000 0.082500
1.000000 0.000000 0.082500
0.000000 0.054291 0.082500
0.122438 0.055589 0.082500
0.239881 0.058921 0.082500
0.351282 0.064555 0.082500
0.453200 0.071793 0.082500
0.541251 0.080204 0.082500
0.621997 0.088880 0.082500
0.694258 0.097525 0.082500
0.761668 0.106132 0.082500
0.825589 0.113303 0.082500
0.886627 0.118883 0.082500
0.944411 0.122439 0.082500
1.000000 0.123588 0.082500
0.000000 0.110958 0.082500
0.118883 0.113373 0.082500
0.233130 0.119807 0.082500
0.341884 0.130681 0.082500
0.442350 0.144422 0.082500
0.528860 0.160234 0.082500
0.608966 0.176537 0.082500
0.681831 0.192862 0.082500
0.750325 0.209025 0.082500
0.816534 0.222470 0.082500
0.880193 0.233130 0.082500
0.941079 0.239881 0.082500
1.000000 0.242028 0.082500
0.000000 0.171177 0.082500
0.113303 0.174411 0.082500
0.222470 0.183466 0.082500
0.326988 0.198309 0.082500
0.424727 0.217318 0.082500
0.509174 0.239432 0.082500
0.588523 0.262617 0.082500
0.662058 0.285633 0.082500
0.731639 0.308069 0.082500
0.801691 0.326988 0.082500
0.869319 0.341884 0.082500
0.935445 0.351282 0.082500
1.000000 0.354477 0.082500
0.000000 0.234346 0.082500
0.106132 0.238332 0.082500
0.209025 0.249675 0.082500
0.308069 0.268361 0.082500
0.402772 0.292112 0.082500
0.483972 0.319458 0.082500
0.562307 0.348067 0.082500
0.636718 0.376345 0.082500
0.707888 0.402772 0.082500
0.782682 0.424727 0.082500
0.855578 0.442350 0.082500
0.928207 0.453200 0.082500
1.000000 0.456957 0.082500
0.000000 0.301574 0.082500
0.097525 0.305742 0.082500
0.192862 0.318169 0.082500
0.285633 0.337942 0.082500
0.376345 0.363282 0.082500
0.454807 0.392413 0.082500
0.532182 0.423580 0.082500
0.607587 0.454807 0.082500
0.680542 0.483972 0.082500
0.760568 0.509174 0.082500
0.839766 0.528860 0.082500
0.919797 0.541251 0.082500
1.000000 0.545498 0.082500
0.000000 0.373743 0.082500
0.088880 0.378003 0.082500
0.176537 0.391034 0.082500
0.262617 0.411477 0.082500
0.348067 0.437693 0.082500
0.423580 0.467818 0.082500
0.500000 0.500000 0.082500
0.576420 0.532182 0.082500
0.651933 0.562307 0.082500
0.737383 0.588523 0.082500
0.823463 0.608966 0.082500
0.911120 0.621997 0.082500
1.000000 0.626257 0.082500
0.000000 0.454502 0.082500
0.080204 0.458749 0.082500
0.160234 0.471140 0.082500
0.239432 0.490826 0.082500
0.319458 0.516028 0.082500
0.392413 0.545193 0.082500
0.467818 0.576420 0.082500
0.545193 0.607587 0.082500
0.623655 0.636718 0.082500
0.714367 0.662058 0.082500
0.807138 0.681831 0.082500
0.902475 0.694258 0.082500
1.000000 0.698426 0.082500
0.000000 0.543043 0.082500
0.071793 0.546800 0.082500
0.144422 0.557650 0.082500
0.217318 0.575273 0.082500
0.292112 0.597228 0.082500
0.363282 0.623655 0.082500
0.437693 0.651933 0.082500
0.516028 0.680542 0.082500
0.597228 0.707888 0.082500
0.691931 0.731639 0.082500
0.790975 0.750325 0.082500
0.893868 0.761668 0.082500
1.000000 0.765654 0.082500
0.000000 0.645523 0.082500
0.064555 0.648718 0.082500
0.130681 0.658116 0.082500
0.198309 0.673012 0.082500
0.268361 0.691931 0.082500
0.337942 0.714367 0.082500
0.411477 0.737383 0.082500
0.490826 0.760568 0.082500
0.575273 0.782682 0.082500
0.673012 0.801691 0.082500
0.777530 0.816534 0.082500
0.886697 0.825589 0.082500
1.000000 0.828823 0.082500
0.000000 0.757972 0.082500
0.058921 0.760119 0.082500
0.119807 0.766870 0.082500
0.183466 0.777530 0.082500
0.249675 0.790975 0.082500
0.318169 0.807138 0.082500
0.391034 0.823463 0.082500
0.471140 0.839766 0.082500
0.557650 0.855578 0.082500
0.658116 0.869319 0.082500
0.766870 0.880193 0.082500
0.881117 0.886627 0.082500
1.000000 0.889042 0.082500
0.000000 0.876412 0.082500
0.055589 0.877562 0.082500
0.113373 0.881117 0.082500
0.174411 0.886697 0.082500
0.238332 0.893868 0.082500
0.305742 0.902475 0.082500
0.378003 0.911120 0.082500
0.458749 0.919797 0.082500
0.546800 0.928207 0.082500
0.648718 0.935445 0.082500
0.760119 0.941079 0.082500
0.877562 0.944411 0.082500
1.000000 0.945710 0.082500
0.000000 1.000000 0.082500
0.054291 1.000000 0.082500
0.110958 1.000000 0.082500
0.171177 1.000000 0.082500
0.234346 1.000000 0.082500
0.301574 1.000000 0.082500
0.373743 1.000000 0.082500
0.454502 1.000000 0.082500
0.543043 1.000000 0.082500
0.645523 1.000000 0.082500
0.757972 1.000000 0.082500
0.876412 1.000000 0.082500
1.000000 1.000000 0.082500
0.000000 0.000000 0.165000
0.123588 0.000000 0.165000
0.242028 0.000000 0.165000
0.354477 0.000000 0.165000
0.456957 0.000000 0.165000
0.545498 0.000000 0.165000
0.626257 0.000000 0.165000
0.698426 0.000000 0.165000
0.765654 0.000000 0.165000
0.828823 0.000000 0.165000
0.889042 0.000000 0.165000
0.945710 0.000000 0.165000
1.000000 0.000000 0.165000
0.000000 0.054291 0.165000
0.122438 0.055589 0.165000
0.239881 0.058921 0.165000
0.351282 0.064555 0.165000
0.453200 0.071793 0.165000
0.541251 0.080204 0.165000
0.621997 0.088880 0.165000
0.694258 0.097525 0.165000
0.761668 0.106132 0.165000
0.825589 0.113303 0.165000
0.886627 0.118883 0.165000
0.944411 0.122439 0.165000
1.000000 0.123588 0.165000
0.000000 0.110958 0.165000
0.118883 0.113373 0.165000
[...]
POINT_DATA 845 
VECTORS pos float 
0.000000 0.000000 0.000000
0.123588 0.000000 0.000000
0.242028 0.000000 0.000000
0.354477 0.000000 0.000000
0.456957 0.000000 0.000000
0.545498 0.000000 0.000000
0.626257 0.000000 0.000000
0.698426 0.000000 0.000000
0.765654 0.000000 0.000000
0.828823 0.000000 0.000000
0.889042 0.000000 0.000000
0.945710 0.000000 0.000000
1.000000 0.000000 0.000000
0.000000 0.054291 0.000000
0.122438 0.055589 0.000000
0.239881 0.058921 0.000000
0.351282 0.064555 0.000000
0.453200 0.071793 0.000000
0.541251 0.080204 0.000000
0.621997 0.088880 0.000000
0.694258 0.097525 0.000000
0.761668 0.106132 0.000000
0.825589 0.113303 0.000000
0.886627 0.118883 0.000000
0.944411 0.122439 0.000000
1.000000 0.123588 0.000000
0.000000 0.110958 0.000000
0.118883 0.113373 0.000000
0.233130 0.119807 0.000000
0.341884 0.130681 0.000000
0.442350 0.144422 0.000000
0.528860 0.160234 0.000000
0.608966 0.176537 0.000000
0.681831 0.192862 0.000000
0.750325 0.209025 0.000000
0.816534 0.222470 0.000000
0.880193 0.233130 0.000000
0.941079 0.239881 0.000000
1.000000 0.242028 0.000000
0.000000 0.171177 0.000000
0.113303 0.174411 0.000000
0.222470 0.183466 0.000000
0.326988 0.198309 0.000000
0.424727 0.217318 0.000000
0.509174 0.239432 0.000000
0.588523 0.262617 0.000000
0.662058 0.285633 0.000000
0.731639 0.308069 0.000000
0.801691 0.326988 0.000000
0.869319 0.341884 0.000000
0.935445 0.351282 0.000000
1.000000 0.354477 0.000000
0.000000 0.234346 0.000000
0.106132 0.238332 0.000000
0.209025 0.249675 0.000000
0.308069 0.268361 0.000000
0.402772 0.292112 0.000000
0.483972 0.319458 0.000000
0.562307 0.348067 0.000000
0.636718 0.376345 0.000000
0.707888 0.402772 0.000000
0.782682 0.424727 0.000000
0.855578 0.442350 0.000000
0.928207 0.453200 0.000000
1.000000 0.456957 0.000000
0.000000 0.301574 0.000000
0.097525 0.305742 0.000000
0.192862 0.318169 0.000000
0.285633 0.337942 0.000000
0.376345 0.363282 0.000000
0.454807 0.392413 0.000000
0.532182 0.423580 0.000000
0.607587 0.454807 0.000000
0.680542 0.483972 0.000000
0.760568 0.509174 0.000000
0.839766 0.528860 0.000000
0.919797 0.541251 0.000000
1.000000 0.545498 0.000000
0.000000 0.373743 0.000000
0.088880 0.378003 0.000000
0.176537 0.391034 0.000000
0.262617 0.411477 0.000000
0.348067 0.437693 0.000000
0.423580 0.467818 0.000000
0.500000 0.500000 0.000000
0.576420 0.532182 0.000000
0.651933 0.562307 0.000000
0.737383 0.588523 0.000000
0.823463 0.608966 0.000000
0.911120 0.621997 0.000000
1.000000 0.626257 0.000000
0.000000 0.454502 0.000000
0.080204 0.458749 0.000000
0.160234 0.471140 0.000000
0.239432 0.490826 0.000000
0.319458 0.516028 0.000000
0.392413 0.545193 0.000000
0.467818 0.576420 0.000000
0.545193 0.607587 0.000000
0.623655 0.636718 0.000000
0.714367 0.662058 0.000000
0.807138 0.681831 0.000000
0.902475 0.694258 0.000000
1.000000 0.698426 0.000000
0.000000 0.543043 0.000000
0.071793 0.546800 0.000000
0.144422 0.557650 0.000000
0.217318 0.575273 0.000000
0.292112 0.597228 0.000000
0.363282 0.623655 0.000000
0.437693 0.651933 0.000000
0.516028 0.680542 0.000000
0.597228 0.707888 0.000000
0.691931 0.731639 0.000000
0.790975 0.750325 0.000000
0.893868 0.761668 0.000000
1.000000 0.765654 0.000000
0.000000 0.645523 0.000000
0.064555 0.648718 0.000000
0.130681 0.658116 0.000000
0.198309 0.673012 0.000000
0.268361 0.691931 0.000000
0.337942 0.714367 0.000000
0.411477 0.737383 0.000000
0.490826 0.760568 0.000000
0.575273 0.782682 0.000000
0.673012 0.801691 0.000000
0.777530 0.816534 0.000000
0.886697 0.825589 0.000000
1.000000 0.828823 0.000000
0.000000 0.757972 0.000000
0.058921 0.760119 0.000000
0.119807 0.766870 0.000000
0.183466 0.777530 0.000000
0.249675 0.790975 0.000000
0.318169 0.807138 0.000000
0.391034 0.823463 0.000000
0.471140 0.839766 0.000000
0.557650 0.855578 0.000000
0.658116 0.869319 0.000000
0.766870 0.880193 0.000000
0.881117 0.886627 0.000000
1.000000 0.889042 0.000000
0.000000 0.876412 0.000000
0.055589 0.877562 0.000000
0.113373 0.881117 0.000000
0.174411 0.886697 0.000000
0.238332 0.893868 0.000000
0.305742 0.902475 0.000000
0.378003 0.911120 0.000000
0.458749 0.919797 0.000000
0.546800 0.928207 0.000000
0.648718 0.935445 0.000000
0.760119 0.941079 0.000000
0.877562 0.944411 0.000000
1.000000 0.945710 0.000000
0.000000 1.000000 0.000000
0.054291 1.000000 0.000000
0.110958 1.000000 0.000000
0.171177 1.000000 0.000000
0.234346 1.000000 0.000000
0.301574 1.000000 0.000000
0.373743 1.000000 0.000000
0.454502 1.000000 0.000000
0.543043 1.000000 0.000000
0.645523 1.000000 0.000000
0.757972 1.000000 0.000000
0.876412 1.000000 0.000000
1.000000 1.000000 0.000000
0.000000 0.000000 0.082500
0.123588 0.000000 0.082500
0.242028 0.000000 0.082500
0.354477 0.000000 0.082500
0.456957 0.000000 0.082500
0.545498 0.000000 0.082500
0.626257 0.000000 0.082500
0.698426 0.000000 0.082500
0.765654 0.000000 0.082500
0.828823 0.000000 0.082500
0.889042 0.000000 0.082500
0.945710 0.000000 0.082500
1.000000 0.000000 0.082500
0.000000 0.054291 0.082500
0.122438 0.055589 0.082500
0.239881 0.058921 0.082500
0.351282 0.064555 0.082500
0.453200 0.071793 0.082500
0.541251 0.080204 0.082500
0.621997 0.088880 0.082500
0.694258 0.097525 0.082500
0.761668 0.106132 0.082500
0.825589 0.113303 0.082500
0.886627 0.118883 0.082500
0.944411 0.122439 0.082500
1.000000 0.123588 0.082500
0.000000 0.110958 0.082500
0.118883 0.113373 0.082500
0.233130 0.119807 0.082500
0.341884 0.130681 0.082500
0.442350 0.144422 0.082500
0.528860 0.160234 0.082500
0.608966 0.176537 0.082500
0.681831 0.192862 0.082500
0.750325 0.209025 0.082500
0.816534 0.222470 0.082500
0.880193 0.233130 0.082500
0.941079 0.239881 0.082500
1.000000 0.242028 0.082500
0.000000 0.171177 0.082500
0.113303 0.174411 0.082500
0.222470 0.183466 0.082500
0.326988 0.198309 0.082500
0.424727 0.217318 0.082500
0.509174 0.239432 0.082500
0.588523 0.262617 0.082500
0.662058 0.285633 0.082500
0.731639 0.308069 0.082500
0.801691 0.326988 0.082500
0.869319 0.341884 0.082500
0.935445 0.351282 0.082500
1.000000 0.354477 0.082500
0.000000 0.234346 0.082500
0.106132 0.238332 0.082500
0.209025 0.249675 0.082500
0.308069 0.268361 0.082500
0.402772 0.292112 0.082500
0.483972 0.319458 0.082500
0.562307 0.348067 0.082500
0.636718 0.376345 0.082500
0.707888 0.402772 0.082500
0.782682 0.424727 0.082500
0.855578 0.442350 0.082500
0.928207 0.453200 0.082500
1.000000 0.456957 0.082500
0.000000 0.301574 0.082500
0.097525 0.305742 0.082500
0.192862 0.318169 0.082500
0.285633 0.337942 0.082500
0.376345 0.363282 0.082500
0.454807 0.392413 0.082500
0.532182 0.423580 0.082500
0.607587 0.454807 0.082500
0.680542 0.483972 0.082500
0.760568 0.509174 0.082500
0.839766 0.528860 0.082500
0.919797 0.541251 0.082500
1.000000 0.545498 0.082500
0.000000 0.373743 0.082500
0.088880 0.378003 0.082500
0.176537 0.391034 0.082500
0.262617 0.411477 0.082500
0.348067 0.437693 0.082500
0.423580 0.467818 0.082500
0.500000 0.500000 0.082500
0.576420 0.532182 0.082500
0.651933 0.562307 0.082500
0.737383 0.588523 0.082500
0.823463 0.608966 0.082500
0.911120 0.621997 0.082500
1.000000 0.626257 0.082500
0.000000 0.454502 0.082500
0.080204 0.458749 0.082500
0.160234 0.471140 0.082500
0.239432 0.490826 0.082500
0.319458 0.516028 0.082500
0.392413 0.545193 0.082500
0.467818 0.576420 0.082500
0.545193 0.607587 0.082500
0.623655 0.636718 0.082500
0.714367 0.662058 0.082500
0.807138 0.681831 0.082500
0.902475 0.694258 0.082500
1.000000 0.698426 0.082500
0.000000 0.543043 0.082500
0.071793 0.546800 0.082500
0.144422 0.557650 0.082500
0.217318 0.575273 0.082500
0.292112 0.597228 0.082500
0.363282 0.623655 0.082500
0.437693 0.651933 0.082500
0.516028 0.680542 0.082500
0.597228 0.707888 0.082500
0.691931 0.731639 0.082500
0.790975 0.750325 0.082500
0.893868 0.761668 0.082500
1.000000 0.765654 0.082500
0.000000 0.645523 0.082500
0.064555 0.648718 0.082500
0.130681 0.658116 0.082500
0.198309 0.673012 0.082500
0.268361 0.691931 0.082500
0.337942 0.714367 0.082500
0.411477 0.737383 0.082500
0.490826 0.760568 0.082500
0.575273 0.782682 0.082500
0.673012 0.801691 0.082500
0.777530 0.816534 0.082500
0.886697 0.825589 0.082500
1.000000 0.828823 0.082500
0.000000 0.757972 0.082500
0.058921 0.760119 0.082500
0.119807 0.766870 0.082500
0.183466 0.777530 0.082500
0.249675 0.790975 0.082500
0.318169 0.807138 0.082500
0.391034 0.823463 0.082500
0.471140 0.839766 0.082500
0.557650 0.855578 0.082500
0.658116 0.869319 0.082500
0.766870 0.880193 0.082500
0.881117 0.886627 0.082500
1.000000 0.889042 0.082500
0.000000 0.876412 0.082500
0.055589 0.877562 0.082500
0.113373 0.881117 0.082500
0.174411 0.886697 0.082500
0.238332 0.893868 0.082500
0.305742 0.902475 0.082500
0.378003 0.911120 0.082500
0.458749 0.919797 0.082500
0.546800 0.928207 0.082500
0.648718 0.935445 0.082500
0.760119 0.941079 0.082500
0.877562 0.944411 0.082500
1.000000 0.945710 0.082500
0.000000 1.000000 0.082500
0.054291 1.000000 0.082500
0.110958 1.000000 0.082500
0.171177 1.000000 0.082500
0.234346 1.000000 0.082500
0.301574 1.000000 0.082500
0.373743 1.000000 0.082500
0.454502 1.000000 0.082500
0.543043 1.000000 0.082500
0.645523 1.000000 0.082500
0.757972 1.000000 0.082500
0.876412 1.000000 0.082500
1.000000 1.000000 0.082500
0.000000 0.000000 0.165000
0.123588 0.000000 0.165000
0.242028 0.000000 0.165000
0.354477 0.000000 0.165000
0.456957 0.000000 0.165000
0.545498 0.000000 0.165000
0.626257 0.000000 0.165000
0.698426 0.000000 0.165000
0.765654 0.000000 0.165000
0.828823 0.000000 0.165000
0.889042 0.000000 0.165000
0.945710 0.000000 0.165000
1.000000 0.000000 0.165000
0.000000 0.054291 0.165000
0.122438 0.055589 0.165000
0.239881 0.058921 0.165000
0.351282 0.064555 0.165000
0.453200 0.071793 0.165000
0.541251 0.080204 0.165000
0.621997 0.088880 0.165000
0.694258 0.097525 0.165000
0.761668 0.106132 0.165000
0.825589 0.113303 0.165000
0.886627 0.118883 0.165000
0.944411 0.122439 0.165000
1.000000 0.123588 0.165000
0.000000 0.110958 0.165000
0.118883 0.113373 0.165000
0.233130 0.119807 0.165000
0.341884 0.130681 0.165000
0.442350 0.144422 0.165000
0.528860 0.160234 0.165000
0.608966 0.176537 0.165000
0.681831 0.192862 0.165000
0.750325 0.209025 0.165000
0.816534 0.222470 0.165000
0.880193 0.233130 0.165000
0.941079 0.239881 0.165000
1.000000 0.242028 0.165000
0.000000 0.171177 0.165000
0.113303 0.174411 0.165000
0.222470 0.183466 0.165000
0.326988 0.198309 0.165000
0.424727 0.217318 0.165000
0.509174 0.239432 0.165000
0.588523 0.262617 0.165000
0.662058 0.285633 0.165000
0.731639 0.308069 0.165000
0.801691 0.326988 0.165000
0.869319 0.341884 0.165000
0.935445 0.351282 0.165000
1.000000 0.354477 0.165000
0.000000 0.234346 0.165000
0.106132 0.238332 0.165000
0.209025 0.249675 0.165000
0.308069 0.268361 0.165000
0.402772 0.292112 0.165000
0.483972 0.319458 0.165000
0.562307 0.348067 0.165000
0.636718 0.376345 0.165000
0.707888 0.402772 0.165000
0.782682 0.424727 0.165000
0.855578 0.442350 0.165000
0.928207 0.453200 0.165000
1.000000 0.456957 0.165000
0.000000 0.301574 0.165000
0.097525 0.305742 0.165000
0.192862 0.318169 0.165000
0.285633 0.337942 0.165000
0.376345 0.363282 0.165000
0.454807 0.392413 0.165000
0.532182 0.423580 0.165000
0.607587 0.454807 0.165000
0.680542 0.483972 0.165000
0.760568 0.509174 0.165000
0.839766 0.528860 0.165000
0.919797 0.541251 0.165000
1.000000 0.545498 0.165000
0.000000 0.373743 0.165000
0.088880 0.378003 0.165000
0.176537 0.391034 0.165000
0.262617 0.411477 0.165000
0.348067 0.437693 0.165000
0.423580 0.467818 0.165000
0.500000 0.500000 0.165000
0.576420 0.532182 0.165000
0.651933 0.562307 0.165000
0.737383 0.588523 0.165000
0.823463 0.608966 0.165000
0.911120 0.621997 0.165000
1.000000 0.626257 0.165000
0.000000 0.454502 0.165000
0.080204 0.458749 0.165000
0.160234 0.471140 0.165000
0.239432 0.490826 0.165000
0.319458 0.516028 0.165000
0.392413 0.545193 0.165000
0.467818 0.576420 0.165000
0.545193 0.607587 0.165000
0.623655 0.636718 0.165000
0.714367 0.662058 0.165000
0.807138 0.681831 0.165000
0.902475 0.694258 0.165000
1.000000 0.698426 0.165000
0.000000 0.543043 0.165000
0.071793 0.546800 0.165000
0.144422 0.557650 0.165000
0.217318 0.575273 0.165000
0.292112 0.597228 0.165000
0.363282 0.623655 0.165000
0.437693 0.651933 0.165000
0.516028 0.680542 0.165000
0.597228 0.707888 0.165000
0.691931 0.731639 0.165000
0.790975 0.750325 0.165000
0.893868 0.761668 0.165000
1.000000 0.765654 0.165000
0.000000 0.645523 0.165000
0.064555 0.648718 0.165000
0.130681 0.658116 0.165000
0.198309 0.673012 0.165000
0.268361 0.691931 0.165000
0.337942 0.714367 0.165000
0.411477 0.737383 0.165000
0.490826 0.760568 0.165000
0.575273 0.782682 0.165000
0.673012 0.801691 0.165000
0.777530 0.816534 0.165000
0.886697 0.825589 0.165000
1.000000 0.828823 0.165000
0.000000 0.757972 0.165000
0.058921 0.760119 0.165000
0.119807 0.766870 0.165000
0.183466 0.777530 0.165000
0.249675 0.790975 0.165000
0.318169 0.807138 0.165000
0.391034 0.823463 0.165000
0.471140 0.839766 0.165000
0.557650 0.855578 0.165000
0.658116 0.869319 0.165000
0.766870 0.880193 0.165000
0.881117 0.886627 0.165000
1.000000 0.889042 0.165000
0.000000 0.876412 0.165000
0.055589 0.877562 0.165000
0.113373 0.881117 0.165000
0.174411 0.886697 0.165000
0.238332 0.893868 0.165000
0.305742 0.902475 0.165000
0.378003 0.911120 0.165000
0.458749 0.919797 0.165000
0.546800 0.928207 0.165000
0.648718 0.935445 0.165000
0.760119 0.941079 0.165000
0.877562 0.944411 0.165000
1.000000 0.945710 0.165000
0.000000 1.000000 0.165000
0.054291 1.000000 0.165000
0.110958 1.000000 0.165000
0.171177 1.000000 0.165000
0.234346 1.000000 0.165000
0.301574 1.000000 0.165000
0.373743 1.000000 0.165000
0.454502 1.000000 0.165000
0.543043 1.000000 0.165000
0.645523 1.000000 0.165000
0.757972 1.000000 0.165000
0.876412 1.000000 0.165000
1.000000 1.000000 0.165000
0.000000 0.000000 0.247500
0.123588 0.000000 0.247500
0.242028 0.000000 0.247500
0.354477 0.000000 0.247500
0.456957 0.000000 0.247500
0.545498 0.000000 0.247500
0.626257 0.000000 0.247500
0.698426 0.000000 0.247500
0.765654 0.000000 0.247500
0.828823 0.000000 0.247500
0.889042 0.000000 0.247500
0.945710 0.000000 0.247500
1.000000 0.000000 0.247500
0.000000 0.054291 0.247500
0.122438 0.055589 0.247500
0.239881 0.058921 0.247500
0.351282 0.064555 0.247500
0.453200 0.071793 0.247500
0.541251 0.080204 0.247500
0.621997 0.088880 0.247500
0.694258 0.097525 0.247500
0.761668 0.106132 0.247500
0.825589 0.113303 0.247500
0.886627 0.118883 0.247500
0.944411 0.122439 0.247500
1.000000 0.123588 0.247500
0.000000 0.110958 0.247500
0.118883 0.113373 0.247500
0.233130 0.119807 0.247500
0.341884 0.130681 0.247500
0.442350 0.144422 0.247500
0.528860 0.160234 0.247500
0.608966 0.176537 0.247500
0.681831 0.192862 0.247500
0.750325 0.209025 0.247500
0.816534 0.222470 0.247500
0.880193 0.233130 0.247500
0.941079 0.239881 0.247500
1.000000 0.242028 0.247500
0.000000 0.171177 0.247500
0.113303 0.174411 0.247500
0.222470 0.183466 0.247500
0.326988 0.198309 0.247500
0.424727 0.217318 0.247500
0.509174 0.239432 0.247500
0.588523 0.262617 0.247500
0.662058 0.285633 0.247500
0.731639 0.308069 0.247500
0.801691 0.326988 0.247500
0.869319 0.341884 0.247500
0.935445 0.351282 0.247500
1.000000 0.354477 0.247500
0.000000 0.234346 0.247500
0.106132 0.238332 0.247500
0.209025 0.249675 0.247500
0.308069 0.268361 0.247500
0.402772 0.292112 0.247500
0.483972 0.319458 0.247500
0.562307 0.348067 0.247500
0.636718 0.376345 0.247500
0.707888 0.402772 0.247500
0.782682 0.424727 0.247500
0.855578 0.442350 0.247500
0.928207 0.453200 0.247500
1.000000 0.456957 0.247500
0.000000 0.301574 0.247500
0.097525 0.305742 0.247500
0.192862 0.318169 0.247500
0.285633 0.337942 0.247500
0.376345 0.363282 0.247500
0.454807 0.392413 0.247500
0.532182 0.423580 0.247500
0.607587 0.454807 0.247500
0.680542 0.483972 0.247500
0.760568 0.509174 0.247500
0.839766 0.528860 0.247500
0.919797 0.541251 0.247500
1.000000 0.545498 0.247500
0.000000 0.373743 0.247500
0.088880 0.378003 0.247500
0.176537 0.391034 0.247500
0.262617 0.411477 0.247500
0.348067 0.437693 0.247500
0.423580 0.467818 0.247500
0.500000 0.500000 0.247500
0.576420 0.532182 0.247500
0.651933 0.562307 0.247500
0.737383 0.588523 0.247500
0.823463 0.608966 0.247500
0.911120 0.621997 0.247500
1.000000 0.626257 0.247500
0.000000 0.454502 0.247500
0.080204 0.458749 0.247500
0.160234 0.471140 0.247500
0.239432 0.490826 0.247500
0.319458 0.516028 0.247500
0.392413 0.545193 0.247500
0.467818 0.576420 0.247500
0.545193 0.607587 0.247500
0.623655 0.636718 0.247500
0.714367 0.662058 0.247500
0.807138 0.681831 0.247500
0.902475 0.694258 0.247500
1.000000 0.698426 0.247500
0.000000 0.543043 0.247500
0.071793 0.546800 0.247500
0.144422 0.557650 0.247500
0.217318 0.575273 0.247500
0.292112 0.597228 0.247500
0.363282 0.623655 0.247500
0.437693 0.651933 0.247500
0.516028 0.680542 0.247500
0.597228 0.707888 0.247500
0.691931 0.731639 0.247500
0.790975 0.750325 0.247500
0.893868 0.761668 0.247500
1.000000 0.765654 0.247500
0.000000 0.645523 0.247500
0.064555 0.648718 0.247500
0.130681 0.658116 0.247500
0.198309 0.673012 0.247500
0.268361 0.691931 0.247500
0.337942 0.714367 0.247500
0.411477 0.737383 0.247500
0.490826 0.760568 0.247500
0.575273 0.782682 0.247500
0.673012 0.801691 0.247500
0.777530 0.816534 0.247500
0.886697 0.825589 0.247500
1.000000 0.828823 0.247500
0.000000 0.757972 0.247500
0.058921 0.760119 0.247500
0.119807 0.766870 0.247500
0.183466 0.777530 0.247500
0.249675 0.790975 0.247500
0.318169 0.807138 0.247500
0.391034 0.823463 0.247500
0.471140 0.839766 0.247500
0.557650 0.855578 0.247500
0.658116 0.869319 0.247500
0.766870 0.880193 0.247500
0.881117 0.886627 0.247500
1.000000 0.889042 0.247500
0.000000 0.876412 0.247500
0.055589 0.877562 0.247500
0.113373 0.881117 0.247500
0.174411 0.886697 0.247500
0.238332 0.893868 0.247500
0.305742 0.902475 0.247500
0.378003 0.911120 0.247500
0.458749 0.919797 0.247500
0.546800 0.928207 0.247500
0.648718 0.935445 0.247500
0.760119 0.941079 0.247500
0.877562 0.944411 0.247500
1.000000 0.945710 0.247500
0.000000 1.000000 0.247500
0.054291 1.000000 0.247500
0.110958 1.000000 0.247500
0.171177 1.000000 0.247500
0.234346 1.000000 0.247500
0.301574 1.000000 0.247500
0.373743 1.000000 0.247500
0.454502 1.000000 0.247500
0.543043 1.000000 0.247500
0.645523 1.000000 0.247500
0.757972 1.000000 0.247500
0.876412 1.000000 0.247500
1.000000 1.000000 0.247500
0.000000 0.000000 0.330000
0.123588 0.000000 0.330000
0.242028 0.000000 0.330000
0.354477 0.000000 0.330000
0.456957 0.000000 0.330000
0.545498 0.000000 0.330000
0.626257 0.000000 0.330000
0.698426 0.000000 0.330000
0.765654 0.000000 0.330000
0.828823 0.000000 0.330000
0.889042 0.000000 0.330000
0.945710 0.000000 0.330000
1.000000 0.000000 0.330000
0.000000 0.054291 0.330000
0.122438 0.055589 0.330000
0.239881 0.058921 0.330000
0.351282 0.064555 0.330000
0.453200 0.071793 0.330000
0.541251 0.080204 0.330000
0.621997 0.088880 0.330000
0.694258 0.097525 0.330000
0.761668 0.106132 0.330000
0.825589 0.113303 0.330000
0.886627 0.118883 0.330000
0.944411 0.122439 0.330000
1.000000 0.123588 0.330000
0.000000 0.110958 0.330000
0.118883 0.113373 0.330000
0.233130 0.119807 0.330000
0.341884 0.130681 0.330000
0.442350 0.144422 0.330000
0.528860 0.160234 0.330000
0.608966 0.176537 0.330000
0.681831 0.192862 0.330000
0.750325 0.209025 0.330000
0.816534 0.222470 0.330000
0.880193 0.233130 0.330000
0.941079 0.239881 0.330000
1.000000 0.242028 0.330000
0.000000 0.171177 0.330000
0.113303 0.174411 0.330000
0.222470 0.183466 0.330000
0.326988 0.198309 0.330000
0.424727 0.217318 0.330000
0.509174 0.239432 0.330000
0.588523 0.262617 0.330000
0.662058 0.285633 0.330000
0.731639 0.308069 0.330000
0.801691 0.326988 0.330000
0.869319 0.341884 0.330000
0.935445 0.351282 0.330000
1.000000 0.354477 0.330000
0.000000 0.234346 0.330000
0.106132 0.238332 0.330000
0.209025 0.249675 0.330000
0.308069 0.268361 0.330000
0.402772 0.292112 0.330000
0.483972 0.319458 0.330000
0.562307 0.348067 0.330000
0.636718 0.376345 0.330000
0.707888 0.402772 0.330000
0.782682 0.424727 0.330000
0.855578 0.442350 0.330000