# vtk DataFile Version 2.0
Mesh for Fierro
ASCII 
DATASET UNSTRUCTURED_GRID

POINTS 845 float
0.000000 0.000000 0.000000
0.393539 0.000000 0.000000
0.621900 0.000000 0.000000
0.732509 0.000000 0.000000
0.802669 0.000000 0.000000
0.849059 0.000000 0.000000
0.884016 0.000000 0.000000
0.910109 0.000000 0.000000
0.931584 0.000000 0.000000
0.950677 0.000000 0.000000
0.967603 0.000000 0.000000
0.984431 0.000000 0.000000
1.000000 0.000000 0.000000
0.000000 0.015569 0.000000
0.388437 0.021996 0.000000
0.612840 0.045660 0.000000
0.721250 0.075574 0.000000
0.787527 0.121389 0.000000
0.831534 0.165483 0.000000
0.864770 0.214371 0.000000
0.891073 0.264223 0.000000
0.913055 0.310716 0.000000
0.934965 0.346078 0.000000
0.956072 0.371312 0.000000
0.978004 0.388437 0.000000
1.000000 0.393539 0.000000
0.000000 0.032397 0.000000
0.371312 0.043928 0.000000
0.589656 0.086328 0.000000
0.696758 0.142276 0.000000
0.756724 0.220828 0.000000
0.797394 0.292905 0.000000
0.821833 0.371349 0.000000
0.841270 0.441188 0.000000
0.858111 0.504871 0.000000
0.882603 0.552947 0.000000
0.913672 0.589657 0.000000
0.954340 0.612840 0.000000
1.000000 0.621900 0.000000
0.000000 0.049323 0.000000
0.346078 0.065035 0.000000
0.552947 0.117397 0.000000
0.654474 0.191617 0.000000
0.704692 0.284100 0.000000
0.736855 0.369620 0.000000
0.746712 0.456528 0.000000
0.759534 0.531399 0.000000
0.772757 0.600051 0.000000
0.808383 0.654474 0.000000
0.857724 0.696758 0.000000
0.924426 0.721250 0.000000
1.000000 0.732509 0.000000
0.000000 0.068416 0.000000
0.310716 0.086945 0.000000
0.504871 0.141889 0.000000
0.600051 0.227243 0.000000
0.644124 0.326368 0.000000
0.662720 0.418431 0.000000
0.659467 0.504301 0.000000
0.665714 0.578264 0.000000
0.673632 0.644124 0.000000
0.715900 0.704692 0.000000
0.779172 0.756723 0.000000
0.878612 0.787527 0.000000
1.000000 0.802669 0.000000
0.000000 0.089891 0.000000
0.264223 0.108927 0.000000
0.441188 0.158730 0.000000
0.531399 0.240466 0.000000
0.578264 0.334286 0.000000
0.587743 0.423362 0.000000
0.579431 0.507352 0.000000
0.576638 0.587743 0.000000
0.581569 0.662720 0.000000
0.630380 0.736855 0.000000
0.707095 0.797394 0.000000
0.834518 0.831534 0.000000
1.000000 0.849059 0.000000
0.000000 0.115984 0.000000
0.214371 0.135230 0.000000
0.371349 0.178167 0.000000
0.456528 0.253288 0.000000
0.504301 0.340533 0.000000
0.507352 0.420569 0.000000
0.500000 0.500000 0.000000
0.492648 0.579431 0.000000
0.495699 0.659467 0.000000
0.543472 0.746712 0.000000
0.628651 0.821833 0.000000
0.785630 0.864770 0.000000
1.000000 0.884016 0.000000
0.000000 0.150941 0.000000
0.165483 0.168466 0.000000
0.292905 0.202606 0.000000
0.369620 0.263145 0.000000
0.418431 0.337280 0.000000
0.423362 0.412257 0.000000
0.420569 0.492648 0.000000
0.412257 0.576638 0.000000
0.421735 0.665714 0.000000
0.468601 0.759534 0.000000
0.558812 0.841270 0.000000
0.735778 0.891073 0.000000
1.000000 0.910109 0.000000
0.000000 0.197331 0.000000
0.121389 0.212473 0.000000
0.220828 0.243276 0.000000
0.284100 0.295308 0.000000
0.326368 0.355876 0.000000
0.334286 0.421735 0.000000
0.340533 0.495699 0.000000
0.337280 0.581569 0.000000
0.355876 0.673632 0.000000
0.399949 0.772757 0.000000
0.495129 0.858111 0.000000
0.689285 0.913055 0.000000
1.000000 0.931584 0.000000
0.000000 0.267491 0.000000
0.075574 0.278750 0.000000
0.142276 0.303242 0.000000
0.191617 0.345526 0.000000
0.227243 0.399949 0.000000
0.240466 0.468601 0.000000
0.253288 0.543472 0.000000
0.263145 0.630380 0.000000
0.295308 0.715900 0.000000
0.345526 0.808383 0.000000
0.447053 0.882603 0.000000
0.653922 0.934965 0.000000
1.000000 0.950678 0.000000
0.000000 0.378100 0.000000
0.045660 0.387160 0.000000
0.086327 0.410344 0.000000
0.117397 0.447053 0.000000
0.141889 0.495129 0.000000
0.158730 0.558812 0.000000
0.178167 0.628651 0.000000
0.202606 0.707095 0.000000
0.243276 0.779172 0.000000
0.303242 0.857724 0.000000
0.410343 0.913673 0.000000
0.628689 0.956072 0.000000
1.000000 0.967603 0.000000
0.000000 0.606462 0.000000
0.021996 0.611564 0.000000
0.043928 0.628689 0.000000
0.065035 0.653922 0.000000
0.086945 0.689285 0.000000
0.108927 0.735778 0.000000
0.135230 0.785630 0.000000
0.168466 0.834518 0.000000
0.212473 0.878612 0.000000
0.278750 0.924426 0.000000
0.387160 0.954340 0.000000
0.611564 0.978004 0.000000
1.000000 0.984431 0.000000
0.000000 1.000000 0.000000
0.015569 1.000000 0.000000
0.032397 1.000000 0.000000
0.049322 1.000000 0.000000
0.068416 1.000000 0.000000
0.089891 1.000000 0.000000
0.115984 1.000000 0.000000
0.150941 1.000000 0.000000
0.197331 1.000000 0.000000
0.267491 1.000000 0.000000
0.378100 1.000000 0.000000
0.606462 1.000000 0.000000
1.000000 1.000000 0.000000
0.000000 0.000000 0.082500
0.393539 0.000000 0.082500
0.621900 0.000000 0.082500
0.732509 0.000000 0.082500
0.802669 0.000000 0.082500
0.849059 0.000000 0.082500
0.884016 0.000000 0.082500
0.910109 0.000000 0.082500
0.931584 0.000000 0.082500
0.950677 0.000000 0.082500
0.967603 0.000000 0.082500
0.984431 0.000000 0.082500
1.000000 0.000000 0.082500
0.000000 0.015569 0.082500
0.388437 0.021996 0.082500
0.612840 0.045660 0.082500
0.721250 0.075574 0.082500
0.787527 0.121389 0.082500
0.831534 0.165483 0.082500
0.864770 0.214371 0.082500
0.891073 0.264223 0.082500
0.913055 0.310716 0.082500
0.934965 0.346078 0.082500
0.956072 0.371312 0.082500
0.978004 0.388437 0.082500
1.000000 0.393539 0.082500
0.000000 0.032397 0.082500
0.371312 0.043928 0.082500
0.589656 0.086328 0.082500
0.696758 0.142276 0.082500
0.756724 0.220828 0.082500
0.797394 0.292905 0.082500
0.821833 0.371349 0.082500
0.841270 0.441188 0.082500
0.858111 0.504871 0.082500
0.882603 0.552947 0.082500
0.913672 0.589657 0.082500
0.954340 0.612840 0.082500
1.000000 0.621900 0.082500
0.000000 0.049323 0.082500
0.346078 0.065035 0.082500
0.552947 0.117397 0.082500
0.654474 0.191617 0.082500
0.704692 0.284100 0.082500
0.736855 0.369620 0.082500
0.746712 0.456528 0.082500
0.759534 0.531399 0.082500
0.772757 0.600051 0.082500
0.808383 0.654474 0.082500
0.857724 0.696758 0.082500
0.924426 0.721250 0.082500
1.000000 0.732509 0.082500
0.000000 0.068416 0.082500
0.310716 0.086945 0.082500
0.504871 0.141889 0.082500
0.600051 0.227243 0.082500
0.644124 0.326368 0.082500
0.662720 0.418431 0.082500
0.659467 0.504301 0.082500
0.665714 0.578264 0.082500
0.673632 0.644124 0.082500
0.715900 0.704692 0.082500
0.779172 0.756723 0.082500
0.878612 0.787527 0.082500
1.000000 0.802669 0.082500
0.000000 0.089891 0.082500
0.264223 0.108927 0.082500
0.441188 0.158730 0.082500
0.531399 0.240466 0.082500
0.578264 0.334286 0.082500
0.587743 0.423362 0.082500
0.579431 0.507352 0.082500
0.576638 0.587743 0.082500
0.581569 0.662720 0.082500
0.630380 0.736855 0.082500
0.707095 0.797394 0.082500
0.834518 0.831534 0.082500
1.000000 0.849059 0.082500
0.000000 0.115984 0.082500
0.214371 0.135230 0.082500
0.371349 0.178167 0.082500
0.456528 0.253288 0.082500
0.504301 0.340533 0.082500
0.507352 0.420569 0.082500
0.500000 0.500000 0.082500
0.492648 0.579431 0.082500
0.495699 0.659467 0.082500
0.543472 0.746712 0.082500
0.628651 0.821833 0.082500
0.785630 0.864770 0.082500
1.000000 0.884016 0.082500
0.000000 0.150941 0.082500
0.165483 0.168466 0.082500
0.292905 0.202606 0.082500
0.369620 0.263145 0.082500
0.418431 0.337280 0.082500
0.423362 0.412257 0.082500
0.420569 0.492648 0.082500
0.412257 0.576638 0.082500
0.421735 0.665714 0.082500
0.468601 0.759534 0.082500
0.558812 0.841270 0.082500
0.735778 0.891073 0.082500
1.000000 0.910109 0.082500
0.000000 0.197331 0.082500
0.121389 0.212473 0.082500
0.220828 0.243276 0.082500
0.284100 0.295308 0.082500
0.326368 0.355876 0.082500
0.334286 0.421735 0.082500
0.340533 0.495699 0.082500
0.337280 0.581569 0.082500
0.355876 0.673632 0.082500
0.399949 0.772757 0.082500
0.495129 0.858111 0.082500
0.689285 0.913055 0.082500
1.000000 0.931584 0.082500
0.000000 0.267491 0.082500
0.075574 0.278750 0.082500
0.142276 0.303242 0.082500
0.191617 0.345526 0.082500
0.227243 0.399949 0.082500
0.240466 0.468601 0.082500
0.253288 0.543472 0.082500
0.263145 0.630380 0.082500
0.295308 0.715900 0.082500
0.345526 0.808383 0.082500
0.447053 0.882603 0.082500
0.653922 0.934965 0.082500
1.000000 0.950678 0.082500
0.000000 0.378100 0.082500
0.045660 0.387160 0.082500
0.086327 0.410344 0.082500
0.117397 0.447053 0.082500
0.141889 0.495129 0.082500
0.158730 0.558812 0.082500
0.178167 0.628651 0.082500
0.202606 0.707095 0.082500
0.243276 0.779172 0.082500
0.303242 0.857724 0.082500
0.410343 0.913673 0.082500
0.628689 0.956072 0.082500
1.000000 0.967603 0.082500
0.000000 0.606462 0.082500
0.021996 0.611564 0.082500
0.043928 0.628689 0.082500
0.065035 0.653922 0.082500
0.086945 0.689285 0.082500
0.108927 0.735778 0.082500
0.135230 0.785630 0.082500
0.168466 0.834518 0.082500
0.212473 0.878612 0.082500
0.278750 0.924426 0.082500
0.387160 0.954340 0.082500
0.611564 0.978004 0.082500
1.000000 0.984431 0.082500
0.000000 1.000000 0.082500
0.015569 1.000000 0.082500
0.032397 1.000000 0.082500
0.049322 1.000000 0.082500
0.068416 1.000000 0.082500
0.089891 1.000000 0.082500
0.115984 1.000000 0.082500
0.150941 1.000000 0.082500
0.197331 1.000000 0.082500
0.267491 1.000000 0.082500
0.378100 1.000000 0.082500
0.606462 1.000000 0.082500
1.000000 1.000000 0.082500
0.000000 0.000000 0.165000
0.393539 0.000000 0.165000
0.621900 0.000000 0.165000
0.732509 0.000000 0.165000
0.802669 0.000000 0.165000
0.849059 0.000000 0.165000
0.884016 0.000000 0.165000
0.910109 0.000000 0.165000
0.931584 0.000000 0.165000
0.950677 0.000000 0.165000
0.967603 0.000000 0.165000
0.984431 0.000000 0.165000
1.000000 0.000000 0.165000
0.000000 0.015569 0.165000
0.388437 0.021996 0.165000
0.612840 0.045660 0.165000
0.721250 0.075574 0.165000
0.787527 0.121389 0.165000
0.831534 0.165483 0.165000
0.864770 0.214371 0.165000
0.891073 0.264223 0.165000
0.913055 0.310716 0.165000
0.934965 0.346078 0.165000
0.956072 0.371312 0.165000
0.978004 0.388437 0.165000
1.000000 0.393539 0.165000
0.000000 0.032397 0.165000
0.371312 0.043928 0.165000
[...]
POINT_DATA 845 
VECTORS pos float 
0.000000 0.000000 0.000000
0.393539 0.000000 0.000000
0.621900 0.000000 0.000000
0.732509 0.000000 0.000000
0.802669 0.000000 0.000000
0.849059 0.000000 0.000000
0.884016 0.000000 0.000000
0.910109 0.000000 0.000000
0.931584 0.000000 0.000000
0.950677 0.000000 0.000000
0.967603 0.000000 0.000000
0.984431 0.000000 0.000000
1.000000 0.000000 0.000000
0.000000 0.015569 0.000000
0.388437 0.021996 0.000000
0.612840 0.045660 0.000000
0.721250 0.075574 0.000000
0.787527 0.121389 0.000000
0.831534 0.165483 0.000000
0.864770 0.214371 0.000000
0.891073 0.264223 0.000000
0.913055 0.310716 0.000000
0.934965 0.346078 0.000000
0.956072 0.371312 0.000000
0.978004 0.388437 0.000000
1.000000 0.393539 0.000000
0.000000 0.032397 0.000000
0.371312 0.043928 0.000000
0.589656 0.086328 0.000000
0.696758 0.142276 0.000000
0.756724 0.220828 0.000000
0.797394 0.292905 0.000000
0.821833 0.371349 0.000000
0.841270 0.441188 0.000000
0.858111 0.504871 0.000000
0.882603 0.552947 0.000000
0.913672 0.589657 0.000000
0.954340 0.612840 0.000000
1.000000 0.621900 0.000000
0.000000 0.049323 0.000000
0.346078 0.065035 0.000000
0.552947 0.117397 0.000000
0.654474 0.191617 0.000000
0.704692 0.284100 0.000000
0.736855 0.369620 0.000000
0.746712 0.456528 0.000000
0.759534 0.531399 0.000000
0.772757 0.600051 0.000000
0.808383 0.654474 0.000000
0.857724 0.696758 0.000000
0.924426 0.721250 0.000000
1.000000 0.732509 0.000000
0.000000 0.068416 0.000000
0.310716 0.086945 0.000000
0.504871 0.141889 0.000000
0.600051 0.227243 0.000000
0.644124 0.326368 0.000000
0.662720 0.418431 0.000000
0.659467 0.504301 0.000000
0.665714 0.578264 0.000000
0.673632 0.644124 0.000000
0.715900 0.704692 0.000000
0.779172 0.756723 0.000000
0.878612 0.787527 0.000000
1.000000 0.802669 0.000000
0.000000 0.089891 0.000000
0.264223 0.108927 0.000000
0.441188 0.158730 0.000000
0.531399 0.240466 0.000000
0.578264 0.334286 0.000000
0.587743 0.423362 0.000000
0.579431 0.507352 0.000000
0.576638 0.587743 0.000000
0.581569 0.662720 0.000000
0.630380 0.736855 0.000000
0.707095 0.797394 0.000000
0.834518 0.831534 0.000000
1.000000 0.849059 0.000000
0.000000 0.115984 0.000000
0.214371 0.135230 0.000000
0.371349 0.178167 0.000000
0.456528 0.253288 0.000000
0.504301 0.340533 0.000000
0.507352 0.420569 0.000000
0.500000 0.500000 0.000000
0.492648 0.579431 0.000000
0.495699 0.659467 0.000000
0.543472 0.746712 0.000000
0.628651 0.821833 0.000000
0.785630 0.864770 0.000000
1.000000 0.884016 0.000000
0.000000 0.150941 0.000000
0.165483 0.168466 0.000000
0.292905 0.202606 0.000000
0.369620 0.263145 0.000000
0.418431 0.337280 0.000000
0.423362 0.412257 0.000000
0.420569 0.492648 0.000000
0.412257 0.576638 0.000000
0.421735 0.665714 0.000000
0.468601 0.759534 0.000000
0.558812 0.841270 0.000000
0.735778 0.891073 0.000000
1.000000 0.910109 0.000000
0.000000 0.197331 0.000000
0.121389 0.212473 0.000000
0.220828 0.243276 0.000000
0.284100 0.295308 0.000000
0.326368 0.355876 0.000000
0.334286 0.421735 0.000000
0.340533 0.495699 0.000000
0.337280 0.581569 0.000000
0.355876 0.673632 0.000000
0.399949 0.772757 0.000000
0.495129 0.858111 0.000000
0.689285 0.913055 0.000000
1.000000 0.931584 0.000000
0.000000 0.267491 0.000000
0.075574 0.278750 0.000000
0.142276 0.303242 0.000000
0.191617 0.345526 0.000000
0.227243 0.399949 0.000000
0.240466 0.468601 0.000000
0.253288 0.543472 0.000000
0.263145 0.630380 0.000000
0.295308 0.715900 0.000000
0.345526 0.808383 0.000000
0.447053 0.882603 0.000000
0.653922 0.934965 0.000000
1.000000 0.950678 0.000000
0.000000 0.378100 0.000000
0.045660 0.387160 0.000000
0.086327 0.410344 0.000000
0.117397 0.447053 0.000000
0.141889 0.495129 0.000000
0.158730 0.558812 0.000000
0.178167 0.628651 0.000000
0.202606 0.707095 0.000000
0.243276 0.779172 0.000000
0.303242 0.857724 0.000000
0.410343 0.913673 0.000000
0.628689 0.956072 0.000000
1.000000 0.967603 0.000000
0.000000 0.606462 0.000000
0.021996 0.611564 0.000000
0.043928 0.628689 0.000000
0.065035 0.653922 0.000000
0.086945 0.689285 0.000000
0.108927 0.735778 0.000000
0.135230 0.785630 0.000000
0.168466 0.834518 0.000000
0.212473 0.878612 0.000000
0.278750 0.924426 0.000000
0.387160 0.954340 0.000000
0.611564 0.978004 0.000000
1.000000 0.984431 0.000000
0.000000 1.000000 0.000000
0.015569 1.000000 0.000000
0.032397 1.000000 0.000000
0.049322 1.000000 0.000000
0.068416 1.000000 0.000000
0.089891 1.000000 0.000000
0.115984 1.000000 0.000000
0.150941 1.000000 0.000000
0.197331 1.000000 0.000000
0.267491 1.000000 0.000000
0.378100 1.000000 0.000000
0.606462 1.000000 0.000000
1.000000 1.000000 0.000000
0.000000 0.000000 0.082500
0.393539 0.000000 0.082500
0.621900 0.000000 0.082500
0.732509 0.000000 0.082500
0.802669 0.000000 0.082500
0.849059 0.000000 0.082500
0.884016 0.000000 0.082500
0.910109 0.000000 0.082500
0.931584 0.000000 0.082500
0.950677 0.000000 0.082500
0.967603 0.000000 0.082500
0.984431 0.000000 0.082500
1.000000 0.000000 0.082500
0.000000 0.015569 0.082500
0.388437 0.021996 0.082500
0.612840 0.045660 0.082500
0.721250 0.075574 0.082500
0.787527 0.121389 0.082500
0.831534 0.165483 0.082500
0.864770 0.214371 0.082500
0.891073 0.264223 0.082500
0.913055 0.310716 0.082500
0.934965 0.346078 0.082500
0.956072 0.371312 0.082500
0.978004 0.388437 0.082500
1.000000 0.393539 0.082500
0.000000 0.032397 0.082500
0.371312 0.043928 0.082500
0.589656 0.086328 0.082500
0.696758 0.142276 0.082500
0.756724 0.220828 0.082500
0.797394 0.292905 0.082500
0.821833 0.371349 0.082500
0.841270 0.441188 0.082500
0.858111 0.504871 0.082500
0.882603 0.552947 0.082500
0.913672 0.589657 0.082500
0.954340 0.612840 0.082500
1.000000 0.621900 0.082500
0.000000 0.049323 0.082500
0.346078 0.065035 0.082500
0.552947 0.117397 0.082500
0.654474 0.191617 0.082500
0.704692 0.284100 0.082500
0.736855 0.369620 0.082500
0.746712 0.456528 0.082500
0.759534 0.531399 0.082500
0.772757 0.600051 0.082500
0.808383 0.654474 0.082500
0.857724 0.696758 0.082500
0.924426 0.721250 0.082500
1.000000 0.732509 0.082500
0.000000 0.068416 0.082500
0.310716 0.086945 0.082500
0.504871 0.141889 0.082500
0.600051 0.227243 0.082500
0.644124 0.326368 0.082500
0.662720 0.418431 0.082500
0.659467 0.504301 0.082500
0.665714 0.578264 0.082500
0.673632 0.644124 0.082500
0.715900 0.704692 0.082500
0.779172 0.756723 0.082500
0.878612 0.787527 0.082500
1.000000 0.802669 0.082500
0.000000 0.089891 0.082500
0.264223 0.108927 0.082500
0.441188 0.158730 0.082500
0.531399 0.240466 0.082500
0.578264 0.334286 0.082500
0.587743 0.423362 0.082500
0.579431 0.507352 0.082500
0.576638 0.587743 0.082500
0.581569 0.662720 0.082500
0.630380 0.736855 0.082500
0.707095 0.797394 0.082500
0.834518 0.831534 0.082500
1.000000 0.849059 0.082500
0.000000 0.115984 0.082500
0.214371 0.135230 0.082500
0.371349 0.178167 0.082500
0.456528 0.253288 0.082500
0.504301 0.340533 0.082500
0.507352 0.420569 0.082500
0.500000 0.500000 0.082500
0.492648 0.579431 0.082500
0.495699 0.659467 0.082500
0.543472 0.746712 0.082500
0.628651 0.821833 0.082500
0.785630 0.864770 0.082500
1.000000 0.884016 0.082500
0.000000 0.150941 0.082500
0.165483 0.168466 0.082500
0.292905 0.202606 0.082500
0.369620 0.263145 0.082500
0.418431 0.337280 0.082500
0.423362 0.412257 0.082500
0.420569 0.492648 0.082500
0.412257 0.576638 0.082500
0.421735 0.665714 0.082500
0.468601 0.759534 0.082500
0.558812 0.841270 0.082500
0.735778 0.891073 0.082500
1.000000 0.910109 0.082500
0.000000 0.197331 0.082500
0.121389 0.212473 0.082500
0.220828 0.243276 0.082500
0.284100 0.295308 0.082500
0.326368 0.355876 0.082500
0.334286 0.421735 0.082500
0.340533 0.495699 0.082500
0.337280 0.581569 0.082500
0.355876 0.673632 0.082500
0.399949 0.772757 0.082500
0.495129 0.858111 0.082500
0.689285 0.913055 0.082500
1.000000 0.931584 0.082500
0.000000 0.267491 0.082500
0.075574 0.278750 0.082500
0.142276 0.303242 0.082500
0.191617 0.345526 0.082500
0.227243 0.399949 0.082500
0.240466 0.468601 0.082500
0.253288 0.543472 0.082500
0.263145 0.630380 0.082500
0.295308 0.715900 0.082500
0.345526 0.808383 0.082500
0.447053 0.882603 0.082500
0.653922 0.934965 0.082500
1.000000 0.950678 0.082500
0.000000 0.378100 0.082500
0.045660 0.387160 0.082500
0.086327 0.410344 0.082500
0.117397 0.447053 0.082500
0.141889 0.495129 0.082500
0.158730 0.558812 0.082500
0.178167 0.628651 0.082500
0.202606 0.707095 0.082500
0.243276 0.779172 0.082500
0.303242 0.857724 0.082500
0.410343 0.913673 0.082500
0.628689 0.956072 0.082500
1.000000 0.967603 0.082500
0.000000 0.606462 0.082500
0.021996 0.611564 0.082500
0.043928 0.628689 0.082500
0.065035 0.653922 0.082500
0.086945 0.689285 0.082500
0.108927 0.735778 0.082500
0.135230 0.785630 0.082500
0.168466 0.834518 0.082500
0.212473 0.878612 0.082500
0.278750 0.924426 0.082500
0.387160 0.954340 0.082500
0.611564 0.978004 0.082500
1.000000 0.984431 0.082500
0.000000 1.000000 0.082500
0.015569 1.000000 0.082500
0.032397 1.000000 0.082500
0.049322 1.000000 0.082500
0.068416 1.000000 0.082500
0.089891 1.000000 0.082500
0.115984 1.000000 0.082500
0.150941 1.000000 0.082500
0.197331 1.000000 0.082500
0.267491 1.000000 0.082500
0.378100 1.000000 0.082500
0.606462 1.000000 0.082500
1.000000 1.000000 0.082500
0.000000 0.000000 0.165000
0.393539 0.000000 0.165000
0.621900 0.000000 0.165000
0.732509 0.000000 0.165000
0.802669 0.000000 0.165000
0.849059 0.000000 0.165000
0.884016 0.000000 0.165000
0.910109 0.000000 0.165000
0.931584 0.000000 0.165000
0.950677 0.000000 0.165000
0.967603 0.000000 0.165000
0.984431 0.000000 0.165000
1.000000 0.000000 0.165000
0.000000 0.015569 0.165000
0.388437 0.021996 0.165000
0.612840 0.045660 0.165000
0.721250 0.075574 0.165000
0.787527 0.121389 0.165000
0.831534 0.165483 0.165000
0.864770 0.214371 0.165000
0.891073 0.264223 0.165000
0.913055 0.310716 0.165000
0.934965 0.346078 0.165000
0.956072 0.371312 0.165000
0.978004 0.388437 0.165000
1.000000 0.393539 0.165000
0.000000 0.032397 0.165000
0.371312 0.043928 0.165000
0.589656 0.086328 0.165000
0.696758 0.142276 0.165000
0.756724 0.220828 0.165000
0.797394 0.292905 0.165000
0.821833 0.371349 0.165000
0.841270 0.441188 0.165000
0.858111 0.504871 0.165000
0.882603 0.552947 0.165000
0.913672 0.589657 0.165000
0.954340 0.612840 0.165000
1.000000 0.621900 0.165000
0.000000 0.049323 0.165000
0.346078 0.065035 0.165000
0.552947 0.117397 0.165000
0.654474 0.191617 0.165000
0.704692 0.284100 0.165000
0.736855 0.369620 0.165000
0.746712 0.456528 0.165000
0.759534 0.531399 0.165000
0.772757 0.600051 0.165000
0.808383 0.654474 0.165000
0.857724 0.696758 0.165000
0.924426 0.721250 0.165000
1.000000 0.732509 0.165000
0.000000 0.068416 0.165000
0.310716 0.086945 0.165000
0.504871 0.141889 0.165000
0.600051 0.227243 0.165000
0.644124 0.326368 0.165000
0.662720 0.418431 0.165000
0.659467 0.504301 0.165000
0.665714 0.578264 0.165000
0.673632 0.644124 0.165000
0.715900 0.704692 0.165000
0.779172 0.756723 0.165000
0.878612 0.787527 0.165000
1.000000 0.802669 0.165000
0.000000 0.089891 0.165000
0.264223 0.108927 0.165000
0.441188 0.158730 0.165000
0.531399 0.240466 0.165000
0.578264 0.334286 0.165000
0.587743 0.423362 0.165000
0.579431 0.507352 0.165000
0.576638 0.587743 0.165000
0.581569 0.662720 0.165000
0.630380 0.736855 0.165000
0.707095 0.797394 0.165000
0.834518 0.831534 0.165000
1.000000 0.849059 0.165000
0.000000 0.115984 0.165000
0.214371 0.135230 0.165000
0.371349 0.178167 0.165000
0.456528 0.253288 0.165000
0.504301 0.340533 0.165000
0.507352 0.420569 0.165000
0.500000 0.500000 0.165000
0.492648 0.579431 0.165000
0.495699 0.659467 0.165000
0.543472 0.746712 0.165000
0.628651 0.821833 0.165000
0.785630 0.864770 0.165000
1.000000 0.884016 0.165000
0.000000 0.150941 0.165000
0.165483 0.168466 0.165000
0.292905 0.202606 0.165000
0.369620 0.263145 0.165000
0.418431 0.337280 0.165000
0.423362 0.412257 0.165000
0.420569 0.492648 0.165000
0.412257 0.576638 0.165000
0.421735 0.665714 0.165000
0.468601 0.759534 0.165000
0.558812 0.841270 0.165000
0.735778 0.891073 0.165000
1.000000 0.910109 0.165000
0.000000 0.197331 0.165000
0.121389 0.212473 0.165000
0.220828 0.243276 0.165000
0.284100 0.295308 0.165000
0.326368 0.355876 0.165000
0.334286 0.421735 0.165000
0.340533 0.495699 0.165000
0.337280 0.581569 0.165000
0.355876 0.673632 0.165000
0.399949 0.772757 0.165000
0.495129 0.858111 0.165000
0.689285 0.913055 0.165000
1.000000 0.931584 0.165000
0.000000 0.267491 0.165000
0.075574 0.278750 0.165000
0.142276 0.303242 0.165000
0.191617 0.345526 0.165000
0.227243 0.399949 0.165000
0.240466 0.468601 0.165000
0.253288 0.543472 0.165000
0.263145 0.630380 0.165000
0.295308 0.715900 0.165000
0.345526 0.808383 0.165000
0.447053 0.882603 0.165000
0.653922 0.934965 0.165000
1.000000 0.950678 0.165000
0.000000 0.378100 0.165000
0.045660 0.387160 0.165000
0.086327 0.410344 0.165000
0.117397 0.447053 0.165000
0.141889 0.495129 0.165000
0.158730 0.558812 0.165000
0.178167 0.628651 0.165000
0.202606 0.707095 0.165000
0.243276 0.779172 0.165000
0.303242 0.857724 0.165000
0.410343 0.913673 0.165000
0.628689 0.956072 0.165000
1.000000 0.967603 0.165000
0.000000 0.606462 0.165000
0.021996 0.611564 0.165000
0.043928 0.628689 0.165000
0.065035 0.653922 0.165000
0.086945 0.689285 0.165000
0.108927 0.735778 0.165000
0.135230 0.785630 0.165000
0.168466 0.834518 0.165000
0.212473 0.878612 0.165000
0.278750 0.924426 0.165000
0.387160 0.954340 0.165000
0.611564 0.978004 0.165000
1.000000 0.984431 0.165000
0.000000 1.000000 0.165000
0.015569 1.000000 0.165000
0.032397 1.000000 0.165000
0.049322 1.000000 0.165000
0.068416 1.000000 0.165000
0.089891 1.000000 0.165000
0.115984 1.000000 0.165000
0.150941 1.000000 0.165000
0.197331 1.000000 0.165000
0.267491 1.000000 0.165000
0.378100 1.000000 0.165000
0.606462 1.000000 0.165000
1.000000 1.000000 0.165000
0.000000 0.000000 0.247500
0.393539 0.000000 0.247500
0.621900 0.000000 0.247500
0.732509 0.000000 0.247500
0.802669 0.000000 0.247500
0.849059 0.000000 0.247500
0.884016 0.000000 0.247500
0.910109 0.000000 0.247500
0.931584 0.000000 0.247500
0.950677 0.000000 0.247500
0.967603 0.000000 0.247500
0.984431 0.000000 0.247500
1.000000 0.000000 0.247500
0.000000 0.015569 0.247500
0.388437 0.021996 0.247500
0.612840 0.045660 0.247500
0.721250 0.075574 0.247500
0.787527 0.121389 0.247500
0.831534 0.165483 0.247500
0.864770 0.214371 0.247500
0.891073 0.264223 0.247500
0.913055 0.310716 0.247500
0.934965 0.346078 0.247500
0.956072 0.371312 0.247500
0.978004 0.388437 0.247500
1.000000 0.393539 0.247500
0.000000 0.032397 0.247500
0.371312 0.043928 0.247500
0.589656 0.086328 0.247500
0.696758 0.142276 0.247500
0.756724 0.220828 0.247500
0.797394 0.292905 0.247500
0.821833 0.371349 0.247500
0.841270 0.441188 0.247500
0.858111 0.504871 0.247500
0.882603 0.552947 0.247500
0.913672 0.589657 0.247500
0.954340 0.612840 0.247500
1.000000 0.621900 0.247500
0.000000 0.049323 0.247500
0.346078 0.065035 0.247500
0.552947 0.117397 0.247500
0.654474 0.191617 0.247500
0.704692 0.284100 0.247500
0.736855 0.369620 0.247500
0.746712 0.456528 0.247500
0.759534 0.531399 0.247500
0.772757 0.600051 0.247500
0.808383 0.654474 0.247500
0.857724 0.696758 0.247500
0.924426 0.721250 0.247500
1.000000 0.732509 0.247500
0.000000 0.068416 0.247500
0.310716 0.086945 0.247500
0.504871 0.141889 0.247500
0.600051 0.227243 0.247500
0.644124 0.326368 0.247500
0.662720 0.418431 0.247500
0.659467 0.504301 0.247500
0.665714 0.578264 0.247500
0.673632 0.644124 0.247500
0.715900 0.704692 0.247500
0.779172 0.756723 0.247500
0.878612 0.787527 0.247500
1.000000 0.802669 0.247500
0.000000 0.089891 0.247500
0.264223 0.108927 0.247500
0.441188 0.158730 0.247500
0.531399 0.240466 0.247500
0.578264 0.334286 0.247500
0.587743 0.423362 0.247500
0.579431 0.507352 0.247500
0.576638 0.587743 0.247500
0.581569 0.662720 0.247500
0.630380 0.736855 0.247500
0.707095 0.797394 0.247500
0.834518 0.831534 0.247500
1.000000 0.849059 0.247500
0.000000 0.115984 0.247500
0.214371 0.135230 0.247500
0.371349 0.178167 0.247500
0.456528 0.253288 0.247500
0.504301 0.340533 0.247500
0.507352 0.420569 0.247500
0.500000 0.500000 0.247500
0.492648 0.579431 0.247500
0.495699 0.659467 0.247500
0.543472 0.746712 0.247500
0.628651 0.821833 0.247500
0.785630 0.864770 0.247500
1.000000 0.884016 0.247500
0.000000 0.150941 0.247500
0.165483 0.168466 0.247500
0.292905 0.202606 0.247500
0.369620 0.263145 0.247500
0.418431 0.337280 0.247500
0.423362 0.412257 0.247500
0.420569 0.492648 0.247500
0.412257 0.576638 0.247500
0.421735 0.665714 0.247500
0.468601 0.759534 0.247500
0.558812 0.841270 0.247500
0.735778 0.891073 0.247500
1.000000 0.910109 0.247500
0.000000 0.197331 0.247500
0.121389 0.212473 0.247500
0.220828 0.243276 0.247500
0.284100 0.295308 0.247500
0.326368 0.355876 0.247500
0.334286 0.421735 0.247500
0.340533 0.495699 0.247500
0.337280 0.581569 0.247500
0.355876 0.673632 0.247500
0.399949 0.772757 0.247500
0.495129 0.858111 0.247500
0.689285 0.913055 0.247500
1.000000 0.931584 0.247500
0.000000 0.267491 0.247500
0.075574 0.278750 0.247500
0.142276 0.303242 0.247500
0.191617 0.345526 0.247500
0.227243 0.399949 0.247500
0.240466 0.468601 0.247500
0.253288 0.543472 0.247500
0.263145 0.630380 0.247500
0.295308 0.715900 0.247500
0.345526 0.808383 0.247500
0.447053 0.882603 0.247500
0.653922 0.934965 0.247500
1.000000 0.950678 0.247500
0.000000 0.378100 0.247500
0.045660 0.387160 0.247500
0.086327 0.410344 0.247500
0.117397 0.447053 0.247500
0.141889 0.495129 0.247500
0.158730 0.558812 0.247500
0.178167 0.628651 0.247500
0.202606 0.707095 0.247500
0.243276 0.779172 0.247500
0.303242 0.857724 0.247500
0.410343 0.913673 0.247500
0.628689 0.956072 0.247500
1.000000 0.967603 0.247500
0.000000 0.606462 0.247500
0.021996 0.611564 0.247500
0.043928 0.628689 0.247500
0.065035 0.653922 0.247500
0.086945 0.689285 0.247500
0.108927 0.735778 0.247500
0.135230 0.785630 0.247500
0.168466 0.834518 0.247500
0.212473 0.878612 0.247500
0.278750 0.924426 0.247500
0.387160 0.954340 0.247500
0.611564 0.978004 0.247500
1.000000 0.984431 0.247500
0.000000 1.000000 0.247500
0.015569 1.000000 0.247500
0.032397 1.000000 0.247500
0.049322 1.000000 0.247500
0.068416 1.000000 0.247500
0.089891 1.000000 0.247500
0.115984 1.000000 0.247500
0.150941 1.000000 0.247500
0.197331 1.000000 0.247500
0.267491 1.000000 0.247500
0.378100 1.000000 0.247500
0.606462 1.000000 0.247500
1.000000 1.000000 0.247500
0.000000 0.000000 0.330000
0.393539 0.000000 0.330000
0.621900 0.000000 0.330000
0.732509 0.000000 0.330000
0.802669 0.000000 0.330000
0.849059 0.000000 0.330000
0.884016 0.000000 0.330000
0.910109 0.000000 0.330000
0.931584 0.000000 0.330000
0.950677 0.000000 0.330000
0.967603 0.000000 0.330000
0.984431 0.000000 0.330000
1.000000 0.000000 0.330000
0.000000 0.015569 0.330000
0.388437 0.021996 0.330000
0.612840 0.045660 0.330000
0.721250 0.075574 0.330000
0.787527 0.121389 0.330000
0.831534 0.165483 0.330000
0.864770 0.214371 0.330000
0.891073 0.264223 0.330000
0.913055 0.310716 0.330000
0.934965 0.346078 0.330000
0.956072 0.371312 0.330000
0.978004 0.388437 0.330000
1.000000 0.393539 0.330000
0.000000 0.032397 0.330000
0.371312 0.043928 0.330000
0.589656 0.086328 0.330000
0.696758 0.142276 0.330000
0.756724 0.220828 0.330000
0.797394 0.292905 0.330000
0.821833 0.371349 0.330000
0.841270 0.441188 0.330000
0.858111 0.504871 0.330000
0.882603 0.552947 0.330000
0.913672 0.589657 0.330000
0.954340 0.612840 0.330000
1.000000 0.621900 0.330000
0.000000 0.049323 0.330000
0.346078 0.065035 0.330000
0.552947 0.117397 0.330000
0.654474 0.191617 0.330000
0.704692 0.284100 0.330000
0.736855 0.369620 0.330000
0.746712 0.456528 0.330000
0.759534 0.531399 0.330000
0.772757 0.600051 0.330000
0.808383 0.654474 0.330000
0.857724 0.696758 0.330000
0.924426 0.721250 0.330000
1.000000 0.732509 0.330000
0.000000 0.068416 0.330000
0.310716 0.086945 0.330000
0.504871 0.141889 0.330000
0.600051 0.227243 0.330000
0.644124 0.326368 0.330000
0.662720 0.418431 0.330000
0.659467 0.504301 0.330000
0.665714 0.578264 0.330000
0.673632 0.644124 0.330000
0.715900 0.704692 0.330000
0.779172 0.756723 0.330000