# vtk DataFile Version 2.0
Mesh for Fierro
ASCII 
DATASET UNSTRUCTURED_GRID

POINTS 845 float
0.000000 0.000000 0.000000
0.112952 0.000000 0.000000
0.222693 0.000000 0.000000
0.328030 0.000000 0.000000
0.427783 0.000000 0.000000
0.515430 0.000000 0.000000
0.598137 0.000000 0.000000
0.674004 0.000000 0.000000
0.744267 0.000000 0.000000
0.813157 0.000000 0.000000
0.878086 0.000000 0.000000
0.939925 0.000000 0.000000
1.000000 0.000000 0.000000
0.000000 0.060075 0.000000
0.112050 0.061018 0.000000
0.220965 0.063588 0.000000
0.325531 0.067841 0.000000
0.424769 0.073394 0.000000
0.512127 0.079818 0.000000
0.594830 0.086489 0.000000
0.670809 0.093149 0.000000
0.741253 0.099682 0.000000
0.810758 0.105119 0.000000
0.876246 0.109413 0.000000
0.938983 0.112050 0.000000
1.000000 0.112952 0.000000
0.000000 0.121914 0.000000
0.109413 0.123754 0.000000
0.215944 0.128843 0.000000
0.318442 0.137122 0.000000
0.416449 0.147695 0.000000
0.502600 0.159819 0.000000
0.584816 0.172432 0.000000
0.661253 0.185118 0.000000
0.732468 0.197419 0.000000
0.803801 0.207716 0.000000
0.871157 0.215944 0.000000
0.936412 0.220965 0.000000
1.000000 0.222693 0.000000
0.000000 0.186843 0.000000
0.105119 0.189242 0.000000
0.207716 0.196199 0.000000
0.306913 0.207510 0.000000
0.402647 0.222252 0.000000
0.487340 0.239257 0.000000
0.569030 0.257173 0.000000
0.646085 0.275081 0.000000
0.718317 0.292266 0.000000
0.792490 0.306913 0.000000
0.862878 0.318442 0.000000
0.932159 0.325531 0.000000
1.000000 0.328030 0.000000
0.000000 0.255733 0.000000
0.099682 0.258747 0.000000
0.197419 0.267532 0.000000
0.292266 0.281683 0.000000
0.385378 0.299862 0.000000
0.467624 0.320780 0.000000
0.548597 0.342836 0.000000
0.626372 0.364950 0.000000
0.700138 0.385378 0.000000
0.777748 0.402647 0.000000
0.852305 0.416449 0.000000
0.926606 0.424769 0.000000
1.000000 0.427783 0.000000
0.000000 0.325996 0.000000
0.093149 0.329191 0.000000
0.185118 0.338747 0.000000
0.275081 0.353915 0.000000
0.364950 0.373628 0.000000
0.444955 0.396222 0.000000
0.525182 0.420550 0.000000
0.603778 0.444955 0.000000
0.679220 0.467624 0.000000
0.760743 0.487340 0.000000
0.840181 0.502600 0.000000
0.920182 0.512127 0.000000
1.000000 0.515430 0.000000
0.000000 0.401863 0.000000
0.086489 0.405170 0.000000
0.172432 0.415184 0.000000
0.257173 0.430970 0.000000
0.342836 0.451403 0.000000
0.420550 0.474818 0.000000
0.500000 0.500000 0.000000
0.579450 0.525182 0.000000
0.657164 0.548597 0.000000
0.742827 0.569030 0.000000
0.827568 0.584816 0.000000
0.913511 0.594831 0.000000
1.000000 0.598137 0.000000
0.000000 0.484570 0.000000
0.079818 0.487873 0.000000
0.159819 0.497400 0.000000
0.239257 0.512660 0.000000
0.320780 0.532376 0.000000
0.396222 0.555045 0.000000
0.474818 0.579450 0.000000
0.555045 0.603778 0.000000
0.635050 0.626372 0.000000
0.724919 0.646085 0.000000
0.814882 0.661253 0.000000
0.906852 0.670809 0.000000
1.000000 0.674004 0.000000
0.000000 0.572217 0.000000
0.073394 0.575231 0.000000
0.147695 0.583551 0.000000
0.222252 0.597353 0.000000
0.299862 0.614622 0.000000
0.373628 0.635050 0.000000
0.451403 0.657164 0.000000
0.532376 0.679220 0.000000
0.614622 0.700138 0.000000
0.707734 0.718317 0.000000
0.802581 0.732468 0.000000
0.900318 0.741253 0.000000
1.000000 0.744267 0.000000
0.000000 0.671970 0.000000
0.067841 0.674469 0.000000
0.137122 0.681558 0.000000
0.207510 0.693087 0.000000
0.281683 0.707734 0.000000
0.353915 0.724919 0.000000
0.430970 0.742827 0.000000
0.512660 0.760743 0.000000
0.597353 0.777748 0.000000
0.693087 0.792490 0.000000
0.792284 0.803801 0.000000
0.894882 0.810758 0.000000
1.000000 0.813157 0.000000
0.000000 0.777307 0.000000
0.063588 0.779035 0.000000
0.128843 0.784056 0.000000
0.196199 0.792284 0.000000
0.267532 0.802581 0.000000
0.338747 0.814882 0.000000
0.415184 0.827568 0.000000
0.497400 0.840181 0.000000
0.583551 0.852305 0.000000
0.681558 0.862878 0.000000
0.784056 0.871157 0.000000
0.890587 0.876246 0.000000
1.000000 0.878086 0.000000
0.000000 0.887048 0.000000
0.061018 0.887950 0.000000
0.123754 0.890587 0.000000
0.189242 0.894882 0.000000
0.258747 0.900318 0.000000
0.329191 0.906852 0.000000
0.405169 0.913511 0.000000
0.487873 0.920182 0.000000
0.575231 0.926606 0.000000
0.674469 0.932159 0.000000
0.779035 0.936412 0.000000
0.887950 0.938983 0.000000
1.000000 0.939925 0.000000
0.000000 1.000000 0.000000
0.060075 1.000000 0.000000
0.121914 1.000000 0.000000
0.186843 1.000000 0.000000
0.255733 1.000000 0.000000
0.325996 1.000000 0.000000
0.401863 1.000000 0.000000
0.484570 1.000000 0.000000
0.572217 1.000000 0.000000
0.671970 1.000000 0.000000
0.777307 1.000000 0.000000
0.887048 1.000000 0.000000
1.000000 1.000000 0.000000
0.000000 0.000000 0.082500
0.112952 0.000000 0.082500
0.222693 0.000000 0.082500
0.328030 0.000000 0.082500
0.427783 0.000000 0.082500
0.515430 0.000000 0.082500
0.598137 0.000000 0.082500
0.674004 0.000000 0.082500
0.744267 0.000000 0.082500
0.813157 0.000000 0.082500
0.878086 0.000000 0.082500
0.939925 0.000000 0.082500
1.000000 0.000000 0.082500
0.000000 0.060075 0.082500
0.112050 0.061018 0.082500
0.220965 0.063588 0.082500
0.325531 0.067841 0.082500
0.424769 0.073394 0.082500
0.512127 0.079818 0.082500
0.594830 0.086489 0.082500
0.670809 0.093149 0.082500
0.741253 0.099682 0.082500
0.810758 0.105119 0.082500
0.876246 0.109413 0.082500
0.938983 0.112050 0.082500
1.000000 0.112952 0.082500
0.000000 0.121914 0.082500
0.109413 0.123754 0.082500
0.215944 0.128843 0.082500
0.318442 0.137122 0.082500
0.416449 0.147695 0.082500
0.502600 0.159819 0.082500
0.584816 0.172432 0.082500
0.661253 0.185118 0.082500
0.732468 0.197419 0.082500
0.803801 0.207716 0.082500
0.871157 0.215944 0.082500
0.936412 0.220965 0.082500
1.000000 0.222693 0.082500
0.000000 0.186843 0.082500
0.105119 0.189242 0.082500
0.207716 0.196199 0.082500
0.306913 0.207510 0.082500
0.402647 0.222252 0.082500
0.487340 0.239257 0.082500
0.569030 0.257173 0.082500
0.646085 0.275081 0.082500
0.718317 0.292266 0.082500
0.792490 0.306913 0.082500
0.862878 0.318442 0.082500
0.932159 0.325531 0.082500
1.000000 0.328030 0.082500
0.000000 0.255733 0.082500
0.099682 0.258747 0.082500
0.197419 0.267532 0.082500
0.292266 0.281683 0.082500
0.385378 0.299862 0.082500
0.467624 0.320780 0.082500
0.548597 0.342836 0.082500
0.626372 0.364950 0.082500
0.700138 0.385378 0.082500
0.777748 0.402647 0.082500
0.852305 0.416449 0.082500
0.926606 0.424769 0.082500
1.000000 0.427783 0.082500
0.000000 0.325996 0.082500
0.093149 0.329191 0.082500
0.185118 0.338747 0.082500
0.275081 0.353915 0.082500
0.364950 0.373628 0.082500
0.444955 0.396222 0.082500
0.525182 0.420550 0.082500
0.603778 0.444955 0.082500
0.679220 0.467624 0.082500
0.760743 0.487340 0.082500
0.840181 0.502600 0.082500
0.920182 0.512127 0.082500
1.000000 0.515430 0.082500
0.000000 0.401863 0.082500
0.086489 0.405170 0.082500
0.172432 0.415184 0.082500
0.257173 0.430970 0.082500
0.342836 0.451403 0.082500
0.420550 0.474818 0.082500
0.500000 0.500000 0.082500
0.579450 0.525182 0.082500
0.657164 0.548597 0.082500
0.742827 0.569030 0.082500
0.827568 0.584816 0.082500
0.913511 0.594831 0.082500
1.000000 0.598137 0.082500
0.000000 0.484570 0.082500
0.079818 0.487873 0.082500
0.159819 0.497400 0.082500
0.239257 0.512660 0.082500
0.320780 0.532376 0.082500
0.396222 0.555045 0.082500
0.474818 0.579450 0.082500
0.555045 0.603778 0.082500
0.635050 0.626372 0.082500
0.724919 0.646085 0.082500
0.814882 0.661253 0.082500
0.906852 0.670809 0.082500
1.000000 0.674004 0.082500
0.000000 0.572217 0.082500
0.073394 0.575231 0.082500
0.147695 0.583551 0.082500
0.222252 0.597353 0.082500
0.299862 0.614622 0.082500
0.373628 0.635050 0.082500
0.451403 0.657164 0.082500
0.532376 0.679220 0.082500
0.614622 0.700138 0.082500
0.707734 0.718317 0.082500
0.802581 0.732468 0.082500
0.900318 0.741253 0.082500
1.000000 0.744267 0.082500
0.000000 0.671970 0.082500
0.067841 0.674469 0.082500
0.137122 0.681558 0.082500
0.207510 0.693087 0.082500
0.281683 0.707734 0.082500
0.353915 0.724919 0.082500
0.430970 0.742827 0.082500
0.512660 0.760743 0.082500
0.597353 0.777748 0.082500
0.693087 0.792490 0.082500
0.792284 0.803801 0.082500
0.894882 0.810758 0.082500
1.000000 0.813157 0.082500
0.000000 0.777307 0.082500
0.063588 0.779035 0.082500
0.128843 0.784056 0.082500
0.196199 0.792284 0.082500
0.267532 0.802581 0.082500
0.338747 0.814882 0.082500
0.415184 0.827568 0.082500
0.497400 0.840181 0.082500
0.583551 0.852305 0.082500
0.681558 0.862878 0.082500
0.784056 0.871157 0.082500
0.890587 0.876246 0.082500
1.000000 0.878086 0.082500
0.000000 0.887048 0.082500
0.061018 0.887950 0.082500
0.123754 0.890587 0.082500
0.189242 0.894882 0.082500
0.258747 0.900318 0.082500
0.329191 0.906852 0.082500
0.405169 0.913511 0.082500
0.487873 0.920182 0.082500
0.575231 0.926606 0.082500
0.674469 0.932159 0.082500
0.779035 0.936412 0.082500
0.887950 0.938983 0.082500
1.000000 0.939925 0.082500
0.000000 1.000000 0.082500
0.060075 1.000000 0.082500
0.121914 1.000000 0.082500
0.186843 1.000000 0.082500
0.255733 1.000000 0.082500
0.325996 1.000000 0.082500
0.401863 1.000000 0.082500
0.484570 1.000000 0.082500
0.572217 1.000000 0.082500
0.671970 1.000000 0.082500
0.777307 1.000000 0.082500
0.887048 1.000000 0.082500
1.000000 1.000000 0.082500
0.000000 0.000000 0.165000
0.112952 0.000000 0.165000
0.222693 0.000000 0.165000
0.328030 0.000000 0.165000
0.427783 0.000000 0.165000
0.515430 0.000000 0.165000
0.598137 0.000000 0.165000
0.674004 0.000000 0.165000
0.744267 0.000000 0.165000
0.813157 0.000000 0.165000
0.878086 0.000000 0.165000
0.939925 0.000000 0.165000
1.000000 0.000000 0.165000
0.000000 0.060075 0.165000
0.112050 0.061018 0.165000
0.220965 0.063588 0.165000
0.325531 0.067841 0.165000
0.424769 0.073394 0.165000
0.512127 0.079818 0.165000
0.594830 0.086489 0.165000
0.670809 0.093149 0.165000
0.741253 0.099682 0.165000
0.810758 0.105119 0.165000
0.876246 0.109413 0.165000
0.938983 0.112050 0.165000
1.000000 0.112952 0.165000
0.000000 0.121914 0.165000
0.109413 0.123754 0.165000
[...]
POINT_DATA 845 
VECTORS pos float 
0.000000 0.000000 0.000000
0.112952 0.000000 0.000000
0.222693 0.000000 0.000000
0.328030 0.000000 0.000000
0.427783 0.000000 0.000000
0.515430 0.000000 0.000000
0.598137 0.000000 0.000000
0.674004 0.000000 0.000000
0.744267 0.000000 0.000000
0.813157 0.000000 0.000000
0.878086 0.000000 0.000000
0.939925 0.000000 0.000000
1.000000 0.000000 0.000000
0.000000 0.060075 0.000000
0.112050 0.061018 0.000000
0.220965 0.063588 0.000000
0.325531 0.067841 0.000000
0.424769 0.073394 0.000000
0.512127 0.079818 0.000000
0.594830 0.086489 0.000000
0.670809 0.093149 0.000000
0.741253 0.099682 0.000000
0.810758 0.105119 0.000000
0.876246 0.109413 0.000000
0.938983 0.112050 0.000000
1.000000 0.112952 0.000000
0.000000 0.121914 0.000000
0.109413 0.123754 0.000000
0.215944 0.128843 0.000000
0.318442 0.137122 0.000000
0.416449 0.147695 0.000000
0.502600 0.159819 0.000000
0.584816 0.172432 0.000000
0.661253 0.185118 0.000000
0.732468 0.197419 0.000000
0.803801 0.207716 0.000000
0.871157 0.215944 0.000000
0.936412 0.220965 0.000000
1.000000 0.222693 0.000000
0.000000 0.186843 0.000000
0.105119 0.189242 0.000000
0.207716 0.196199 0.000000
0.306913 0.207510 0.000000
0.402647 0.222252 0.000000
0.487340 0.239257 0.000000
0.569030 0.257173 0.000000
0.646085 0.275081 0.000000
0.718317 0.292266 0.000000
0.792490 0.306913 0.000000
0.862878 0.318442 0.000000
0.932159 0.325531 0.000000
1.000000 0.328030 0.000000
0.000000 0.255733 0.000000
0.099682 0.258747 0.000000
0.197419 0.267532 0.000000
0.292266 0.281683 0.000000
0.385378 0.299862 0.000000
0.467624 0.320780 0.000000
0.548597 0.342836 0.000000
0.626372 0.364950 0.000000
0.700138 0.385378 0.000000
0.777748 0.402647 0.000000
0.852305 0.416449 0.000000
0.926606 0.424769 0.000000
1.000000 0.427783 0.000000
0.000000 0.325996 0.000000
0.093149 0.329191 0.000000
0.185118 0.338747 0.000000
0.275081 0.353915 0.000000
0.364950 0.373628 0.000000
0.444955 0.396222 0.000000
0.525182 0.420550 0.000000
0.603778 0.444955 0.000000
0.679220 0.467624 0.000000
0.760743 0.487340 0.000000
0.840181 0.502600 0.000000
0.920182 0.512127 0.000000
1.000000 0.515430 0.000000
0.000000 0.401863 0.000000
0.086489 0.405170 0.000000
0.172432 0.415184 0.000000
0.257173 0.430970 0.000000
0.342836 0.451403 0.000000
0.420550 0.474818 0.000000
0.500000 0.500000 0.000000
0.579450 0.525182 0.000000
0.657164 0.548597 0.000000
0.742827 0.569030 0.000000
0.827568 0.584816 0.000000
0.913511 0.594831 0.000000
1.000000 0.598137 0.000000
0.000000 0.484570 0.000000
0.079818 0.487873 0.000000
0.159819 0.497400 0.000000
0.239257 0.512660 0.000000
0.320780 0.532376 0.000000
0.396222 0.555045 0.000000
0.474818 0.579450 0.000000
0.555045 0.603778 0.000000
0.635050 0.626372 0.000000
0.724919 0.646085 0.000000
0.814882 0.661253 0.000000
0.906852 0.670809 0.000000
1.000000 0.674004 0.000000
0.000000 0.572217 0.000000
0.073394 0.575231 0.000000
0.147695 0.583551 0.000000
0.222252 0.597353 0.000000
0.299862 0.614622 0.000000
0.373628 0.635050 0.000000
0.451403 0.657164 0.000000
0.532376 0.679220 0.000000
0.614622 0.700138 0.000000
0.707734 0.718317 0.000000
0.802581 0.732468 0.000000
0.900318 0.741253 0.000000
1.000000 0.744267 0.000000
0.000000 0.671970 0.000000
0.067841 0.674469 0.000000
0.137122 0.681558 0.000000
0.207510 0.693087 0.000000
0.281683 0.707734 0.000000
0.353915 0.724919 0.000000
0.430970 0.742827 0.000000
0.512660 0.760743 0.000000
0.597353 0.777748 0.000000
0.693087 0.792490 0.000000
0.792284 0.803801 0.000000
0.894882 0.810758 0.000000
1.000000 0.813157 0.000000
0.000000 0.777307 0.000000
0.063588 0.779035 0.000000
0.128843 0.784056 0.000000
0.196199 0.792284 0.000000
0.267532 0.802581 0.000000
0.338747 0.814882 0.000000
0.415184 0.827568 0.000000
0.497400 0.840181 0.000000
0.583551 0.852305 0.000000
0.681558 0.862878 0.000000
0.784056 0.871157 0.000000
0.890587 0.876246 0.000000
1.000000 0.878086 0.000000
0.000000 0.887048 0.000000
0.061018 0.887950 0.000000
0.123754 0.890587 0.000000
0.189242 0.894882 0.000000
0.258747 0.900318 0.000000
0.329191 0.906852 0.000000
0.405169 0.913511 0.000000
0.487873 0.920182 0.000000
0.575231 0.926606 0.000000
0.674469 0.932159 0.000000
0.779035 0.936412 0.000000
0.887950 0.938983 0.000000
1.000000 0.939925 0.000000
0.000000 1.000000 0.000000
0.060075 1.000000 0.000000
0.121914 1.000000 0.000000
0.186843 1.000000 0.000000
0.255733 1.000000 0.000000
0.325996 1.000000 0.000000
0.401863 1.000000 0.000000
0.484570 1.000000 0.000000
0.572217 1.000000 0.000000
0.671970 1.000000 0.000000
0.777307 1.000000 0.000000
0.887048 1.000000 0.000000
1.000000 1.000000 0.000000
0.000000 0.000000 0.082500
0.112952 0.000000 0.082500
0.222693 0.000000 0.082500
0.328030 0.000000 0.082500
0.427783 0.000000 0.082500
0.515430 0.000000 0.082500
0.598137 0.000000 0.082500
0.674004 0.000000 0.082500
0.744267 0.000000 0.082500
0.813157 0.000000 0.082500
0.878086 0.000000 0.082500
0.939925 0.000000 0.082500
1.000000 0.000000 0.082500
0.000000 0.060075 0.082500
0.112050 0.061018 0.082500
0.220965 0.063588 0.082500
0.325531 0.067841 0.082500
0.424769 0.073394 0.082500
0.512127 0.079818 0.082500
0.594830 0.086489 0.082500
0.670809 0.093149 0.082500
0.741253 0.099682 0.082500
0.810758 0.105119 0.082500
0.876246 0.109413 0.082500
0.938983 0.112050 0.082500
1.000000 0.112952 0.082500
0.000000 0.121914 0.082500
0.109413 0.123754 0.082500
0.215944 0.128843 0.082500
0.318442 0.137122 0.082500
0.416449 0.147695 0.082500
0.502600 0.159819 0.082500
0.584816 0.172432 0.082500
0.661253 0.185118 0.082500
0.732468 0.197419 0.082500
0.803801 0.207716 0.082500
0.871157 0.215944 0.082500
0.936412 0.220965 0.082500
1.000000 0.222693 0.082500
0.000000 0.186843 0.082500
0.105119 0.189242 0.082500
0.207716 0.196199 0.082500
0.306913 0.207510 0.082500
0.402647 0.222252 0.082500
0.487340 0.239257 0.082500
0.569030 0.257173 0.082500
0.646085 0.275081 0.082500
0.718317 0.292266 0.082500
0.792490 0.306913 0.082500
0.862878 0.318442 0.082500
0.932159 0.325531 0.082500
1.000000 0.328030 0.082500
0.000000 0.255733 0.082500
0.099682 0.258747 0.082500
0.197419 0.267532 0.082500
0.292266 0.281683 0.082500
0.385378 0.299862 0.082500
0.467624 0.320780 0.082500
0.548597 0.342836 0.082500
0.626372 0.364950 0.082500
0.700138 0.385378 0.082500
0.777748 0.402647 0.082500
0.852305 0.416449 0.082500
0.926606 0.424769 0.082500
1.000000 0.427783 0.082500
0.000000 0.325996 0.082500
0.093149 0.329191 0.082500
0.185118 0.338747 0.082500
0.275081 0.353915 0.082500
0.364950 0.373628 0.082500
0.444955 0.396222 0.082500
0.525182 0.420550 0.082500
0.603778 0.444955 0.082500
0.679220 0.467624 0.082500
0.760743 0.487340 0.082500
0.840181 0.502600 0.082500
0.920182 0.512127 0.082500
1.000000 0.515430 0.082500
0.000000 0.401863 0.082500
0.086489 0.405170 0.082500
0.172432 0.415184 0.082500
0.257173 0.430970 0.082500
0.342836 0.451403 0.082500
0.420550 0.474818 0.082500
0.500000 0.500000 0.082500
0.579450 0.525182 0.082500
0.657164 0.548597 0.082500
0.742827 0.569030 0.082500
0.827568 0.584816 0.082500
0.913511 0.594831 0.082500
1.000000 0.598137 0.082500
0.000000 0.484570 0.082500
0.079818 0.487873 0.082500
0.159819 0.497400 0.082500
0.239257 0.512660 0.082500
0.320780 0.532376 0.082500
0.396222 0.555045 0.082500
0.474818 0.579450 0.082500
0.555045 0.603778 0.082500
0.635050 0.626372 0.082500
0.724919 0.646085 0.082500
0.814882 0.661253 0.082500
0.906852 0.670809 0.082500
1.000000 0.674004 0.082500
0.000000 0.572217 0.082500
0.073394 0.575231 0.082500
0.147695 0.583551 0.082500
0.222252 0.597353 0.082500
0.299862 0.614622 0.082500
0.373628 0.635050 0.082500
0.451403 0.657164 0.082500
0.532376 0.679220 0.082500
0.614622 0.700138 0.082500
0.707734 0.718317 0.082500
0.802581 0.732468 0.082500
0.900318 0.741253 0.082500
1.000000 0.744267 0.082500
0.000000 0.671970 0.082500
0.067841 0.674469 0.082500
0.137122 0.681558 0.082500
0.207510 0.693087 0.082500
0.281683 0.707734 0.082500
0.353915 0.724919 0.082500
0.430970 0.742827 0.082500
0.512660 0.760743 0.082500
0.597353 0.777748 0.082500
0.693087 0.792490 0.082500
0.792284 0.803801 0.082500
0.894882 0.810758 0.082500
1.000000 0.813157 0.082500
0.000000 0.777307 0.082500
0.063588 0.779035 0.082500
0.128843 0.784056 0.082500
0.196199 0.792284 0.082500
0.267532 0.802581 0.082500
0.338747 0.814882 0.082500
0.415184 0.827568 0.082500
0.497400 0.840181 0.082500
0.583551 0.852305 0.082500
0.681558 0.862878 0.082500
0.784056 0.871157 0.082500
0.890587 0.876246 0.082500
1.000000 0.878086 0.082500
0.000000 0.887048 0.082500
0.061018 0.887950 0.082500
0.123754 0.890587 0.082500
0.189242 0.894882 0.082500
0.258747 0.900318 0.082500
0.329191 0.906852 0.082500
0.405169 0.913511 0.082500
0.487873 0.920182 0.082500
0.575231 0.926606 0.082500
0.674469 0.932159 0.082500
0.779035 0.936412 0.082500
0.887950 0.938983 0.082500
1.000000 0.939925 0.082500
0.000000 1.000000 0.082500
0.060075 1.000000 0.082500
0.121914 1.000000 0.082500
0.186843 1.000000 0.082500
0.255733 1.000000 0.082500
0.325996 1.000000 0.082500
0.401863 1.000000 0.082500
0.484570 1.000000 0.082500
0.572217 1.000000 0.082500
0.671970 1.000000 0.082500
0.777307 1.000000 0.082500
0.887048 1.000000 0.082500
1.000000 1.000000 0.082500
0.000000 0.000000 0.165000
0.112952 0.000000 0.165000
0.222693 0.000000 0.165000
0.328030 0.000000 0.165000
0.427783 0.000000 0.165000
0.515430 0.000000 0.165000
0.598137 0.000000 0.165000
0.674004 0.000000 0.165000
0.744267 0.000000 0.165000
0.813157 0.000000 0.165000
0.878086 0.000000 0.165000
0.939925 0.000000 0.165000
1.000000 0.000000 0.165000
0.000000 0.060075 0.165000
0.112050 0.061018 0.165000
0.220965 0.063588 0.165000
0.325531 0.067841 0.165000
0.424769 0.073394 0.165000
0.512127 0.079818 0.165000
0.594830 0.086489 0.165000
0.670809 0.093149 0.165000
0.741253 0.099682 0.165000
0.810758 0.105119 0.165000
0.876246 0.109413 0.165000
0.938983 0.112050 0.165000
1.000000 0.112952 0.165000
0.000000 0.121914 0.165000
0.109413 0.123754 0.165000
0.215944 0.128843 0.165000
0.318442 0.137122 0.165000
0.416449 0.147695 0.165000
0.502600 0.159819 0.165000
0.584816 0.172432 0.165000
0.661253 0.185118 0.165000
0.732468 0.197419 0.165000
0.803801 0.207716 0.165000
0.871157 0.215944 0.165000
0.936412 0.220965 0.165000
1.000000 0.222693 0.165000
0.000000 0.186843 0.165000
0.105119 0.189242 0.165000
0.207716 0.196199 0.165000
0.306913 0.207510 0.165000
0.402647 0.222252 0.165000
0.487340 0.239257 0.165000
0.569030 0.257173 0.165000
0.646085 0.275081 0.165000
0.718317 0.292266 0.165000
0.792490 0.306913 0.165000
0.862878 0.318442 0.165000
0.932159 0.325531 0.165000
1.000000 0.328030 0.165000
0.000000 0.255733 0.165000
0.099682 0.258747 0.165000
0.197419 0.267532 0.165000
0.292266 0.281683 0.165000
0.385378 0.299862 0.165000
0.467624 0.320780 0.165000
0.548597 0.342836 0.165000
0.626372 0.364950 0.165000
0.700138 0.385378 0.165000
0.777748 0.402647 0.165000
0.852305 0.416449 0.165000
0.926606 0.424769 0.165000
1.000000 0.427783 0.165000
0.000000 0.325996 0.165000
0.093149 0.329191 0.165000
0.185118 0.338747 0.165000
0.275081 0.353915 0.165000
0.364950 0.373628 0.165000
0.444955 0.396222 0.165000
0.525182 0.420550 0.165000
0.603778 0.444955 0.165000
0.679220 0.467624 0.165000
0.760743 0.487340 0.165000
0.840181 0.502600 0.165000
0.920182 0.512127 0.165000
1.000000 0.515430 0.165000
0.000000 0.401863 0.165000
0.086489 0.405170 0.165000
0.172432 0.415184 0.165000
0.257173 0.430970 0.165000
0.342836 0.451403 0.165000
0.420550 0.474818 0.165000
0.500000 0.500000 0.165000
0.579450 0.525182 0.165000
0.657164 0.548597 0.165000
0.742827 0.569030 0.165000
0.827568 0.584816 0.165000
0.913511 0.594831 0.165000
1.000000 0.598137 0.165000
0.000000 0.484570 0.165000
0.079818 0.487873 0.165000
0.159819 0.497400 0.165000
0.239257 0.512660 0.165000
0.320780 0.532376 0.165000
0.396222 0.555045 0.165000
0.474818 0.579450 0.165000
0.555045 0.603778 0.165000
0.635050 0.626372 0.165000
0.724919 0.646085 0.165000
0.814882 0.661253 0.165000
0.906852 0.670809 0.165000
1.000000 0.674004 0.165000
0.000000 0.572217 0.165000
0.073394 0.575231 0.165000
0.147695 0.583551 0.165000
0.222252 0.597353 0.165000
0.299862 0.614622 0.165000
0.373628 0.635050 0.165000
0.451403 0.657164 0.165000
0.532376 0.679220 0.165000
0.614622 0.700138 0.165000
0.707734 0.718317 0.165000
0.802581 0.732468 0.165000
0.900318 0.741253 0.165000
1.000000 0.744267 0.165000
0.000000 0.671970 0.165000
0.067841 0.674469 0.165000
0.137122 0.681558 0.165000
0.207510 0.693087 0.165000
0.281683 0.707734 0.165000
0.353915 0.724919 0.165000
0.430970 0.742827 0.165000
0.512660 0.760743 0.165000
0.597353 0.777748 0.165000
0.693087 0.792490 0.165000
0.792284 0.803801 0.165000
0.894882 0.810758 0.165000
1.000000 0.813157 0.165000
0.000000 0.777307 0.165000
0.063588 0.779035 0.165000
0.128843 0.784056 0.165000
0.196199 0.792284 0.165000
0.267532 0.802581 0.165000
0.338747 0.814882 0.165000
0.415184 0.827568 0.165000
0.497400 0.840181 0.165000
0.583551 0.852305 0.165000
0.681558 0.862878 0.165000
0.784056 0.871157 0.165000
0.890587 0.876246 0.165000
1.000000 0.878086 0.165000
0.000000 0.887048 0.165000
0.061018 0.887950 0.165000
0.123754 0.890587 0.165000
0.189242 0.894882 0.165000
0.258747 0.900318 0.165000
0.329191 0.906852 0.165000
0.405169 0.913511 0.165000
0.487873 0.920182 0.165000
0.575231 0.926606 0.165000
0.674469 0.932159 0.165000
0.779035 0.936412 0.165000
0.887950 0.938983 0.165000
1.000000 0.939925 0.165000
0.000000 1.000000 0.165000
0.060075 1.000000 0.165000
0.121914 1.000000 0.165000
0.186843 1.000000 0.165000
0.255733 1.000000 0.165000
0.325996 1.000000 0.165000
0.401863 1.000000 0.165000
0.484570 1.000000 0.165000
0.572217 1.000000 0.165000
0.671970 1.000000 0.165000
0.777307 1.000000 0.165000
0.887048 1.000000 0.165000
1.000000 1.000000 0.165000
0.000000 0.000000 0.247500
0.112952 0.000000 0.247500
0.222693 0.000000 0.247500
0.328030 0.000000 0.247500
0.427783 0.000000 0.247500
0.515430 0.000000 0.247500
0.598137 0.000000 0.247500
0.674004 0.000000 0.247500
0.744267 0.000000 0.247500
0.813157 0.000000 0.247500
0.878086 0.000000 0.247500
0.939925 0.000000 0.247500
1.000000 0.000000 0.247500
0.000000 0.060075 0.247500
0.112050 0.061018 0.247500
0.220965 0.063588 0.247500
0.325531 0.067841 0.247500
0.424769 0.073394 0.247500
0.512127 0.079818 0.247500
0.594830 0.086489 0.247500
0.670809 0.093149 0.247500
0.741253 0.099682 0.247500
0.810758 0.105119 0.247500
0.876246 0.109413 0.247500
0.938983 0.112050 0.247500
1.000000 0.112952 0.247500
0.000000 0.121914 0.247500
0.109413 0.123754 0.247500
0.215944 0.128843 0.247500
0.318442 0.137122 0.247500
0.416449 0.147695 0.247500
0.502600 0.159819 0.247500
0.584816 0.172432 0.247500
0.661253 0.185118 0.247500
0.732468 0.197419 0.247500
0.803801 0.207716 0.247500
0.871157 0.215944 0.247500
0.936412 0.220965 0.247500
1.000000 0.222693 0.247500
0.000000 0.186843 0.247500
0.105119 0.189242 0.247500
0.207716 0.196199 0.247500
0.306913 0.207510 0.247500
0.402647 0.222252 0.247500
0.487340 0.239257 0.247500
0.569030 0.257173 0.247500
0.646085 0.275081 0.247500
0.718317 0.292266 0.247500
0.792490 0.306913 0.247500
0.862878 0.318442 0.247500
0.932159 0.325531 0.247500
1.000000 0.328030 0.247500
0.000000 0.255733 0.247500
0.099682 0.258747 0.247500
0.197419 0.267532 0.247500
0.292266 0.281683 0.247500
0.385378 0.299862 0.247500
0.467624 0.320780 0.247500
0.548597 0.342836 0.247500
0.626372 0.364950 0.247500
0.700138 0.385378 0.247500
0.777748 0.402647 0.247500
0.852305 0.416449 0.247500
0.926606 0.424769 0.247500
1.000000 0.427783 0.247500
0.000000 0.325996 0.247500
0.093149 0.329191 0.247500
0.185118 0.338747 0.247500
0.275081 0.353915 0.247500
0.364950 0.373628 0.247500
0.444955 0.396222 0.247500
0.525182 0.420550 0.247500
0.603778 0.444955 0.247500
0.679220 0.467624 0.247500
0.760743 0.487340 0.247500
0.840181 0.502600 0.247500
0.920182 0.512127 0.247500
1.000000 0.515430 0.247500
0.000000 0.401863 0.247500
0.086489 0.405170 0.247500
0.172432 0.415184 0.247500
0.257173 0.430970 0.247500
0.342836 0.451403 0.247500
0.420550 0.474818 0.247500
0.500000 0.500000 0.247500
0.579450 0.525182 0.247500
0.657164 0.548597 0.247500
0.742827 0.569030 0.247500
0.827568 0.584816 0.247500
0.913511 0.594831 0.247500
1.000000 0.598137 0.247500
0.000000 0.484570 0.247500
0.079818 0.487873 0.247500
0.159819 0.497400 0.247500
0.239257 0.512660 0.247500
0.320780 0.532376 0.247500
0.396222 0.555045 0.247500
0.474818 0.579450 0.247500
0.555045 0.603778 0.247500
0.635050 0.626372 0.247500
0.724919 0.646085 0.247500
0.814882 0.661253 0.247500
0.906852 0.670809 0.247500
1.000000 0.674004 0.247500
0.000000 0.572217 0.247500
0.073394 0.575231 0.247500
0.147695 0.583551 0.247500
0.222252 0.597353 0.247500
0.299862 0.614622 0.247500
0.373628 0.635050 0.247500
0.451403 0.657164 0.247500
0.532376 0.679220 0.247500
0.614622 0.700138 0.247500
0.707734 0.718317 0.247500
0.802581 0.732468 0.247500
0.900318 0.741253 0.247500
1.000000 0.744267 0.247500
0.000000 0.671970 0.247500
0.067841 0.674469 0.247500
0.137122 0.681558 0.247500
0.207510 0.693087 0.247500
0.281683 0.707734 0.247500
0.353915 0.724919 0.247500
0.430970 0.742827 0.247500
0.512660 0.760743 0.247500
0.597353 0.777748 0.247500
0.693087 0.792490 0.247500
0.792284 0.803801 0.247500
0.894882 0.810758 0.247500
1.000000 0.813157 0.247500
0.000000 0.777307 0.247500
0.063588 0.779035 0.247500
0.128843 0.784056 0.247500
0.196199 0.792284 0.247500
0.267532 0.802581 0.247500
0.338747 0.814882 0.247500
0.415184 0.827568 0.247500
0.497400 0.840181 0.247500
0.583551 0.852305 0.247500
0.681558 0.862878 0.247500
0.784056 0.871157 0.247500
0.890587 0.876246 0.247500
1.000000 0.878086 0.247500
0.000000 0.887048 0.247500
0.061018 0.887950 0.247500
0.123754 0.890587 0.247500
0.189242 0.894882 0.247500
0.258747 0.900318 0.247500
0.329191 0.906852 0.247500
0.405169 0.913511 0.247500
0.487873 0.920182 0.247500
0.575231 0.926606 0.247500
0.674469 0.932159 0.247500
0.779035 0.936412 0.247500
0.887950 0.938983 0.247500
1.000000 0.939925 0.247500
0.000000 1.000000 0.247500
0.060075 1.000000 0.247500
0.121914 1.000000 0.247500
0.186843 1.000000 0.247500
0.255733 1.000000 0.247500
0.325996 1.000000 0.247500
0.401863 1.000000 0.247500
0.484570 1.000000 0.247500
0.572217 1.000000 0.247500
0.671970 1.000000 0.247500
0.777307 1.000000 0.247500
0.887048 1.000000 0.247500
1.000000 1.000000 0.247500
0.000000 0.000000 0.330000
0.112952 0.000000 0.330000
0.222693 0.000000 0.330000
0.328030 0.000000 0.330000
0.427783 0.000000 0.330000
0.515430 0.000000 0.330000
0.598137 0.000000 0.330000
0.674004 0.000000 0.330000
0.744267 0.000000 0.330000
0.813157 0.000000 0.330000
0.878086 0.000000 0.330000
0.939925 0.000000 0.330000
1.000000 0.000000 0.330000
0.000000 0.060075 0.330000
0.112050 0.061018 0.330000
0.220965 0.063588 0.330000
0.325531 0.067841 0.330000
0.424769 0.073394 0.330000
0.512127 0.079818 0.330000
0.594830 0.086489 0.330000
0.670809 0.093149 0.330000
0.741253 0.099682 0.330000
0.810758 0.105119 0.330000
0.876246 0.109413 0.330000
0.938983 0.112050 0.330000
1.000000 0.112952 0.330000
0.000000 0.121914 0.330000
0.109413 0.123754 0.330000
0.215944 0.128843 0.330000
0.318442 0.137122 0.330000
0.416449 0.147695 0.330000
0.502600 0.159819 0.330000
0.584816 0.172432 0.330000
0.661253 0.185118 0.330000
0.732468 0.197419 0.330000
0.803801 0.207716 0.330000
0.871157 0.215944 0.330000
0.936412 0.220965 0.330000
1.000000 0.222693 0.330000
0.000000 0.186843 0.330000
0.105119 0.189242 0.330000
0.207716 0.196199 0.330000
0.306913 0.207510 0.330000
0.402647 0.222252 0.330000
0.487340 0.239257 0.330000
0.569030 0.257173 0.330000
0.646085 0.275081 0.330000
0.718317 0.292266 0.330000
0.792490 0.306913 0.330000
0.862878 0.318442 0.330000
0.932159 0.325531 0.330000
1.000000 0.328030 0.330000
0.000000 0.255733 0.330000
0.099682 0.258747 0.330000
0.197419 0.267532 0.330000
0.292266 0.281683 0.330000
0.385378 0.299862 0.330000
0.467624 0.320780 0.330000
0.548597 0.342836 0.330000
0.626372 0.364950 0.330000
0.700138 0.385378 0.330000
0.777748 0.402647 0.330000
0.852305 0.416449 0.330000