# vtk DataFile Version 2.0
Mesh for Fierro
ASCII 
DATASET UNSTRUCTURED_GRID

POINTS 845 float
0.000000 0.000000 0.000000
0.198391 0.000000 0.000000
0.369129 0.000000 0.000000
0.505634 0.000000 0.000000
0.609552 0.000000 0.000000
0.691607 0.000000 0.000000
0.758731 0.000000 0.000000
0.811574 0.000000 0.000000
0.857229 0.000000 0.000000
0.896128 0.000000 0.000000
0.934130 0.000000 0.000000
0.966290 0.000000 0.000000
1.000000 0.000000 0.000000
0.000000 0.033710 0.000000
0.195527 0.037364 0.000000
0.364620 0.045218 0.000000
0.499066 0.059472 0.000000
0.602302 0.076164 0.000000
0.682531 0.095346 0.000000
0.748388 0.115973 0.000000
0.800878 0.136475 0.000000
0.845342 0.157199 0.000000
0.886196 0.174252 0.000000
0.925385 0.187003 0.000000
0.962636 0.195527 0.000000
1.000000 0.198391 0.000000
0.000000 0.065870 0.000000
0.187003 0.074615 0.000000
0.349953 0.091216 0.000000
0.479400 0.117231 0.000000
0.579597 0.147953 0.000000
0.656665 0.183399 0.000000
0.720430 0.221246 0.000000
0.773831 0.258924 0.000000
0.819601 0.296542 0.000000
0.864942 0.327084 0.000000
0.908784 0.349953 0.000000
0.954782 0.364620 0.000000
1.000000 0.369129 0.000000
0.000000 0.103872 0.000000
0.174252 0.113804 0.000000
0.327084 0.135058 0.000000
0.449339 0.170944 0.000000
0.545349 0.213576 0.000000
0.617380 0.262118 0.000000
0.676786 0.313717 0.000000
0.729681 0.362300 0.000000
0.777622 0.409747 0.000000
0.829056 0.449339 0.000000
0.882769 0.479400 0.000000
0.940528 0.499066 0.000000
1.000000 0.505634 0.000000
0.000000 0.142771 0.000000
0.157199 0.154657 0.000000
0.296542 0.180399 0.000000
0.409747 0.222378 0.000000
0.502049 0.274674 0.000000
0.567601 0.332519 0.000000
0.622578 0.393472 0.000000
0.674731 0.449594 0.000000
0.725326 0.502049 0.000000
0.786424 0.545349 0.000000
0.852047 0.579597 0.000000
0.923836 0.602302 0.000000
1.000000 0.609552 0.000000
0.000000 0.188426 0.000000
0.136475 0.199122 0.000000
0.258924 0.226169 0.000000
0.362300 0.270319 0.000000
0.449594 0.325269 0.000000
0.510618 0.385730 0.000000
0.562908 0.449337 0.000000
0.614270 0.510618 0.000000
0.667481 0.567601 0.000000
0.737882 0.617380 0.000000
0.816601 0.656665 0.000000
0.904654 0.682531 0.000000
1.000000 0.691607 0.000000
0.000000 0.241269 0.000000
0.115973 0.251612 0.000000
0.221246 0.279570 0.000000
0.313717 0.323214 0.000000
0.393472 0.377422 0.000000
0.449337 0.437092 0.000000
0.500000 0.500000 0.000000
0.550663 0.562908 0.000000
0.606528 0.622578 0.000000
0.686283 0.676786 0.000000
0.778754 0.720430 0.000000
0.884028 0.748388 0.000000
1.000000 0.758731 0.000000
0.000000 0.308393 0.000000
0.095346 0.317469 0.000000
0.183399 0.343335 0.000000
0.262118 0.382620 0.000000
0.332519 0.432399 0.000000
0.385730 0.489382 0.000000
0.437092 0.550663 0.000000
0.489382 0.614270 0.000000
0.550406 0.674731 0.000000
0.637700 0.729681 0.000000
0.741076 0.773830 0.000000
0.863525 0.800878 0.000000
1.000000 0.811574 0.000000
0.000000 0.390448 0.000000
0.076164 0.397698 0.000000
0.147953 0.420403 0.000000
0.213576 0.454651 0.000000
0.274674 0.497951 0.000000
0.325269 0.550406 0.000000
0.377422 0.606528 0.000000
0.432399 0.667481 0.000000
0.497951 0.725326 0.000000
0.590253 0.777622 0.000000
0.703458 0.819601 0.000000
0.842802 0.845343 0.000000
1.000000 0.857229 0.000000
0.000000 0.494366 0.000000
0.059472 0.500934 0.000000
0.117231 0.520600 0.000000
0.170944 0.550661 0.000000
0.222378 0.590253 0.000000
0.270319 0.637700 0.000000
0.323214 0.686283 0.000000
0.382620 0.737882 0.000000
0.454651 0.786424 0.000000
0.550661 0.829056 0.000000
0.672916 0.864942 0.000000
0.825748 0.886196 0.000000
1.000000 0.896128 0.000000
0.000000 0.630871 0.000000
0.045218 0.635380 0.000000
0.091216 0.650047 0.000000
0.135058 0.672916 0.000000
0.180399 0.703458 0.000000
0.226170 0.741076 0.000000
0.279570 0.778754 0.000000
0.343335 0.816601 0.000000
0.420403 0.852047 0.000000
0.520600 0.882769 0.000000
0.650047 0.908784 0.000000
0.812997 0.925385 0.000000
1.000000 0.934130 0.000000
0.000000 0.801610 0.000000
0.037364 0.804474 0.000000
0.074615 0.812997 0.000000
0.113804 0.825748 0.000000
0.154657 0.842802 0.000000
0.199122 0.863525 0.000000
0.251612 0.884028 0.000000
0.317469 0.904654 0.000000
0.397698 0.923836 0.000000
0.500934 0.940528 0.000000
0.635380 0.954782 0.000000
0.804474 0.962636 0.000000
1.000000 0.966290 0.000000
0.000000 1.000000 0.000000
0.033710 1.000000 0.000000
0.065870 1.000000 0.000000
0.103872 1.000000 0.000000
0.142771 1.000000 0.000000
0.188426 1.000000 0.000000
0.241269 1.000000 0.000000
0.308393 1.000000 0.000000
0.390448 1.000000 0.000000
0.494366 1.000000 0.000000
0.630871 1.000000 0.000000
0.801610 1.000000 0.000000
1.000000 1.000000 0.000000
0.000000 0.000000 0.082500
0.198391 0.000000 0.082500
0.369129 0.000000 0.082500
0.505634 0.000000 0.082500
0.609552 0.000000 0.082500
0.691607 0.000000 0.082500
0.758731 0.000000 0.082500
0.811574 0.000000 0.082500
0.857229 0.000000 0.082500
0.896128 0.000000 0.082500
0.934130 0.000000 0.082500
0.966290 0.000000 0.082500
1.000000 0.000000 0.082500
0.000000 0.033710 0.082500
0.195527 0.037364 0.082500
0.364620 0.045218 0.082500
0.499066 0.059472 0.082500
0.602302 0.076164 0.082500
0.682531 0.095346 0.082500
0.748388 0.115973 0.082500
0.800878 0.136475 0.082500
0.845342 0.157199 0.082500
0.886196 0.174252 0.082500
0.925385 0.187003 0.082500
0.962636 0.195527 0.082500
1.000000 0.198391 0.082500
0.000000 0.065870 0.082500
0.187003 0.074615 0.082500
0.349953 0.091216 0.082500
0.479400 0.117231 0.082500
0.579597 0.147953 0.082500
0.656665 0.183399 0.082500
0.720430 0.221246 0.082500
0.773831 0.258924 0.082500
0.819601 0.296542 0.082500
0.864942 0.327084 0.082500
0.908784 0.349953 0.082500
0.954782 0.364620 0.082500
1.000000 0.369129 0.082500
0.000000 0.103872 0.082500
0.174252 0.113804 0.082500
0.327084 0.135058 0.082500
0.449339 0.170944 0.082500
0.545349 0.213576 0.082500
0.617380 0.262118 0.082500
0.676786 0.313717 0.082500
0.729681 0.362300 0.082500
0.777622 0.409747 0.082500
0.829056 0.449339 0.082500
0.882769 0.479400 0.082500
0.940528 0.499066 0.082500
1.000000 0.505634 0.082500
0.000000 0.142771 0.082500
0.157199 0.154657 0.082500
0.296542 0.180399 0.082500
0.409747 0.222378 0.082500
0.502049 0.274674 0.082500
0.567601 0.332519 0.082500
0.622578 0.393472 0.082500
0.674731 0.449594 0.082500
0.725326 0.502049 0.082500
0.786424 0.545349 0.082500
0.852047 0.579597 0.082500
0.923836 0.602302 0.082500
1.000000 0.609552 0.082500
0.000000 0.188426 0.082500
0.136475 0.199122 0.082500
0.258924 0.226169 0.082500
0.362300 0.270319 0.082500
0.449594 0.325269 0.082500
0.510618 0.385730 0.082500
0.562908 0.449337 0.082500
0.614270 0.510618 0.082500
0.667481 0.567601 0.082500
0.737882 0.617380 0.082500
0.816601 0.656665 0.082500
0.904654 0.682531 0.082500
1.000000 0.691607 0.082500
0.000000 0.241269 0.082500
0.115973 0.251612 0.082500
0.221246 0.279570 0.082500
0.313717 0.323214 0.082500
0.393472 0.377422 0.082500
0.449337 0.437092 0.082500
0.500000 0.500000 0.082500
0.550663 0.562908 0.082500
0.606528 0.622578 0.082500
0.686283 0.676786 0.082500
0.778754 0.720430 0.082500
0.884028 0.748388 0.082500
1.000000 0.758731 0.082500
0.000000 0.308393 0.082500
0.095346 0.317469 0.082500
0.183399 0.343335 0.082500
0.262118 0.382620 0.082500
0.332519 0.432399 0.082500
0.385730 0.489382 0.082500
0.437092 0.550663 0.082500
0.489382 0.614270 0.082500
0.550406 0.674731 0.082500
0.637700 0.729681 0.082500
0.741076 0.773830 0.082500
0.863525 0.800878 0.082500
1.000000 0.811574 0.082500
0.000000 0.390448 0.082500
0.076164 0.397698 0.082500
0.147953 0.420403 0.082500
0.213576 0.454651 0.082500
0.274674 0.497951 0.082500
0.325269 0.550406 0.082500
0.377422 0.606528 0.082500
0.432399 0.667481 0.082500
0.497951 0.725326 0.082500
0.590253 0.777622 0.082500
0.703458 0.819601 0.082500
0.842802 0.845343 0.082500
1.000000 0.857229 0.082500
0.000000 0.494366 0.082500
0.059472 0.500934 0.082500
0.117231 0.520600 0.082500
0.170944 0.550661 0.082500
0.222378 0.590253 0.082500
0.270319 0.637700 0.082500
0.323214 0.686283 0.082500
0.382620 0.737882 0.082500
0.454651 0.786424 0.082500
0.550661 0.829056 0.082500
0.672916 0.864942 0.082500
0.825748 0.886196 0.082500
1.000000 0.896128 0.082500
0.000000 0.630871 0.082500
0.045218 0.635380 0.082500
0.091216 0.650047 0.082500
0.135058 0.672916 0.082500
0.180399 0.703458 0.082500
0.226170 0.741076 0.082500
0.279570 0.778754 0.082500
0.343335 0.816601 0.082500
0.420403 0.852047 0.082500
0.520600 0.882769 0.082500
0.650047 0.908784 0.082500
0.812997 0.925385 0.082500
1.000000 0.934130 0.082500
0.000000 0.801610 0.082500
0.037364 0.804474 0.082500
0.074615 0.812997 0.082500
0.113804 0.825748 0.082500
0.154657 0.842802 0.082500
0.199122 0.863525 0.082500
0.251612 0.884028 0.082500
0.317469 0.904654 0.082500
0.397698 0.923836 0.082500
0.500934 0.940528 0.082500
0.635380 0.954782 0.082500
0.804474 0.962636 0.082500
1.000000 0.966290 0.082500
0.000000 1.000000 0.082500
0.033710 1.000000 0.082500
0.065870 1.000000 0.082500
0.103872 1.000000 0.082500
0.142771 1.000000 0.082500
0.188426 1.000000 0.082500
0.241269 1.000000 0.082500
0.308393 1.000000 0.082500
0.390448 1.000000 0.082500
0.494366 1.000000 0.082500
0.630871 1.000000 0.082500
0.801610 1.000000 0.082500
1.000000 1.000000 0.082500
0.000000 0.000000 0.165000
0.198391 0.000000 0.165000
0.369129 0.000000 0.165000
0.505634 0.000000 0.165000
0.609552 0.000000 0.165000
0.691607 0.000000 0.165000
0.758731 0.000000 0.165000
0.811574 0.000000 0.165000
0.857229 0.000000 0.165000
0.896128 0.000000 0.165000
0.934130 0.000000 0.165000
0.966290 0.000000 0.165000
1.000000 0.000000 0.165000
0.000000 0.033710 0.165000
0.195527 0.037364 0.165000
0.364620 0.045218 0.165000
0.499066 0.059472 0.165000
0.602302 0.076164 0.165000
0.682531 0.095346 0.165000
0.748388 0.115973 0.165000
0.800878 0.136475 0.165000
0.845342 0.157199 0.165000
0.886196 0.174252 0.165000
0.925385 0.187003 0.165000
0.962636 0.195527 0.165000
1.000000 0.198391 0.165000
0.000000 0.065870 0.165000
0.187003 0.074615 0.165000
[...]
POINT_DATA 845 
VECTORS pos float 
0.000000 0.000000 0.000000
0.198391 0.000000 0.000000
0.369129 0.000000 0.000000
0.505634 0.000000 0.000000
0.609552 0.000000 0.000000
0.691607 0.000000 0.000000
0.758731 0.000000 0.000000
0.811574 0.000000 0.000000
0.857229 0.000000 0.000000
0.896128 0.000000 0.000000
0.934130 0.000000 0.000000
0.966290 0.000000 0.000000
1.000000 0.000000 0.000000
0.000000 0.033710 0.000000
0.195527 0.037364 0.000000
0.364620 0.045218 0.000000
0.499066 0.059472 0.000000
0.602302 0.076164 0.000000
0.682531 0.095346 0.000000
0.748388 0.115973 0.000000
0.800878 0.136475 0.000000
0.845342 0.157199 0.000000
0.886196 0.174252 0.000000
0.925385 0.187003 0.000000
0.962636 0.195527 0.000000
1.000000 0.198391 0.000000
0.000000 0.065870 0.000000
0.187003 0.074615 0.000000
0.349953 0.091216 0.000000
0.479400 0.117231 0.000000
0.579597 0.147953 0.000000
0.656665 0.183399 0.000000
0.720430 0.221246 0.000000
0.773831 0.258924 0.000000
0.819601 0.296542 0.000000
0.864942 0.327084 0.000000
0.908784 0.349953 0.000000
0.954782 0.364620 0.000000
1.000000 0.369129 0.000000
0.000000 0.103872 0.000000
0.174252 0.113804 0.000000
0.327084 0.135058 0.000000
0.449339 0.170944 0.000000
0.545349 0.213576 0.000000
0.617380 0.262118 0.000000
0.676786 0.313717 0.000000
0.729681 0.362300 0.000000
0.777622 0.409747 0.000000
0.829056 0.449339 0.000000
0.882769 0.479400 0.000000
0.940528 0.499066 0.000000
1.000000 0.505634 0.000000
0.000000 0.142771 0.000000
0.157199 0.154657 0.000000
0.296542 0.180399 0.000000
0.409747 0.222378 0.000000
0.502049 0.274674 0.000000
0.567601 0.332519 0.000000
0.622578 0.393472 0.000000
0.674731 0.449594 0.000000
0.725326 0.502049 0.000000
0.786424 0.545349 0.000000
0.852047 0.579597 0.000000
0.923836 0.602302 0.000000
1.000000 0.609552 0.000000
0.000000 0.188426 0.000000
0.136475 0.199122 0.000000
0.258924 0.226169 0.000000
0.362300 0.270319 0.000000
0.449594 0.325269 0.000000
0.510618 0.385730 0.000000
0.562908 0.449337 0.000000
0.614270 0.510618 0.000000
0.667481 0.567601 0.000000
0.737882 0.617380 0.000000
0.816601 0.656665 0.000000
0.904654 0.682531 0.000000
1.000000 0.691607 0.000000
0.000000 0.241269 0.000000
0.115973 0.251612 0.000000
0.221246 0.279570 0.000000
0.313717 0.323214 0.000000
0.393472 0.377422 0.000000
0.449337 0.437092 0.000000
0.500000 0.500000 0.000000
0.550663 0.562908 0.000000
0.606528 0.622578 0.000000
0.686283 0.676786 0.000000
0.778754 0.720430 0.000000
0.884028 0.748388 0.000000
1.000000 0.758731 0.000000
0.000000 0.308393 0.000000
0.095346 0.317469 0.000000
0.183399 0.343335 0.000000
0.262118 0.382620 0.000000
0.332519 0.432399 0.000000
0.385730 0.489382 0.000000
0.437092 0.550663 0.000000
0.489382 0.614270 0.000000
0.550406 0.674731 0.000000
0.637700 0.729681 0.000000
0.741076 0.773830 0.000000
0.863525 0.800878 0.000000
1.000000 0.811574 0.000000
0.000000 0.390448 0.000000
0.076164 0.397698 0.000000
0.147953 0.420403 0.000000
0.213576 0.454651 0.000000
0.274674 0.497951 0.000000
0.325269 0.550406 0.000000
0.377422 0.606528 0.000000
0.432399 0.667481 0.000000
0.497951 0.725326 0.000000
0.590253 0.777622 0.000000
0.703458 0.819601 0.000000
0.842802 0.845343 0.000000
1.000000 0.857229 0.000000
0.000000 0.494366 0.000000
0.059472 0.500934 0.000000
0.117231 0.520600 0.000000
0.170944 0.550661 0.000000
0.222378 0.590253 0.000000
0.270319 0.637700 0.000000
0.323214 0.686283 0.000000
0.382620 0.737882 0.000000
0.454651 0.786424 0.000000
0.550661 0.829056 0.000000
0.672916 0.864942 0.000000
0.825748 0.886196 0.000000
1.000000 0.896128 0.000000
0.000000 0.630871 0.000000
0.045218 0.635380 0.000000
0.091216 0.650047 0.000000
0.135058 0.672916 0.000000
0.180399 0.703458 0.000000
0.226170 0.741076 0.000000
0.279570 0.778754 0.000000
0.343335 0.816601 0.000000
0.420403 0.852047 0.000000
0.520600 0.882769 0.000000
0.650047 0.908784 0.000000
0.812997 0.925385 0.000000
1.000000 0.934130 0.000000
0.000000 0.801610 0.000000
0.037364 0.804474 0.000000
0.074615 0.812997 0.000000
0.113804 0.825748 0.000000
0.154657 0.842802 0.000000
0.199122 0.863525 0.000000
0.251612 0.884028 0.000000
0.317469 0.904654 0.000000
0.397698 0.923836 0.000000
0.500934 0.940528 0.000000
0.635380 0.954782 0.000000
0.804474 0.962636 0.000000
1.000000 0.966290 0.000000
0.000000 1.000000 0.000000
0.033710 1.000000 0.000000
0.065870 1.000000 0.000000
0.103872 1.000000 0.000000
0.142771 1.000000 0.000000
0.188426 1.000000 0.000000
0.241269 1.000000 0.000000
0.308393 1.000000 0.000000
0.390448 1.000000 0.000000
0.494366 1.000000 0.000000
0.630871 1.000000 0.000000
0.801610 1.000000 0.000000
1.000000 1.000000 0.000000
0.000000 0.000000 0.082500
0.198391 0.000000 0.082500
0.369129 0.000000 0.082500
0.505634 0.000000 0.082500
0.609552 0.000000 0.082500
0.691607 0.000000 0.082500
0.758731 0.000000 0.082500
0.811574 0.000000 0.082500
0.857229 0.000000 0.082500
0.896128 0.000000 0.082500
0.934130 0.000000 0.082500
0.966290 0.000000 0.082500
1.000000 0.000000 0.082500
0.000000 0.033710 0.082500
0.195527 0.037364 0.082500
0.364620 0.045218 0.082500
0.499066 0.059472 0.082500
0.602302 0.076164 0.082500
0.682531 0.095346 0.082500
0.748388 0.115973 0.082500
0.800878 0.136475 0.082500
0.845342 0.157199 0.082500
0.886196 0.174252 0.082500
0.925385 0.187003 0.082500
0.962636 0.195527 0.082500
1.000000 0.198391 0.082500
0.000000 0.065870 0.082500
0.187003 0.074615 0.082500
0.349953 0.091216 0.082500
0.479400 0.117231 0.082500
0.579597 0.147953 0.082500
0.656665 0.183399 0.082500
0.720430 0.221246 0.082500
0.773831 0.258924 0.082500
0.819601 0.296542 0.082500
0.864942 0.327084 0.082500
0.908784 0.349953 0.082500
0.954782 0.364620 0.082500
1.000000 0.369129 0.082500
0.000000 0.103872 0.082500
0.174252 0.113804 0.082500
0.327084 0.135058 0.082500
0.449339 0.170944 0.082500
0.545349 0.213576 0.082500
0.617380 0.262118 0.082500
0.676786 0.313717 0.082500
0.729681 0.362300 0.082500
0.777622 0.409747 0.082500
0.829056 0.449339 0.082500
0.882769 0.479400 0.082500
0.940528 0.499066 0.082500
1.000000 0.505634 0.082500
0.000000 0.142771 0.082500
0.157199 0.154657 0.082500
0.296542 0.180399 0.082500
0.409747 0.222378 0.082500
0.502049 0.274674 0.082500
0.567601 0.332519 0.082500
0.622578 0.393472 0.082500
0.674731 0.449594 0.082500
0.725326 0.502049 0.082500
0.786424 0.545349 0.082500
0.852047 0.579597 0.082500
0.923836 0.602302 0.082500
1.000000 0.609552 0.082500
0.000000 0.188426 0.082500
0.136475 0.199122 0.082500
0.258924 0.226169 0.082500
0.362300 0.270319 0.082500
0.449594 0.325269 0.082500
0.510618 0.385730 0.082500
0.562908 0.449337 0.082500
0.614270 0.510618 0.082500
0.667481 0.567601 0.082500
0.737882 0.617380 0.082500
0.816601 0.656665 0.082500
0.904654 0.682531 0.082500
1.000000 0.691607 0.082500
0.000000 0.241269 0.082500
0.115973 0.251612 0.082500
0.221246 0.279570 0.082500
0.313717 0.323214 0.082500
0.393472 0.377422 0.082500
0.449337 0.437092 0.082500
0.500000 0.500000 0.082500
0.550663 0.562908 0.082500
0.606528 0.622578 0.082500
0.686283 0.676786 0.082500
0.778754 0.720430 0.082500
0.884028 0.748388 0.082500
1.000000 0.758731 0.082500
0.000000 0.308393 0.082500
0.095346 0.317469 0.082500
0.183399 0.343335 0.082500
0.262118 0.382620 0.082500
0.332519 0.432399 0.082500
0.385730 0.489382 0.082500
0.437092 0.550663 0.082500
0.489382 0.614270 0.082500
0.550406 0.674731 0.082500
0.637700 0.729681 0.082500
0.741076 0.773830 0.082500
0.863525 0.800878 0.082500
1.000000 0.811574 0.082500
0.000000 0.390448 0.082500
0.076164 0.397698 0.082500
0.147953 0.420403 0.082500
0.213576 0.454651 0.082500
0.274674 0.497951 0.082500
0.325269 0.550406 0.082500
0.377422 0.606528 0.082500
0.432399 0.667481 0.082500
0.497951 0.725326 0.082500
0.590253 0.777622 0.082500
0.703458 0.819601 0.082500
0.842802 0.845343 0.082500
1.000000 0.857229 0.082500
0.000000 0.494366 0.082500
0.059472 0.500934 0.082500
0.117231 0.520600 0.082500
0.170944 0.550661 0.082500
0.222378 0.590253 0.082500
0.270319 0.637700 0.082500
0.323214 0.686283 0.082500
0.382620 0.737882 0.082500
0.454651 0.786424 0.082500
0.550661 0.829056 0.082500
0.672916 0.864942 0.082500
0.825748 0.886196 0.082500
1.000000 0.896128 0.082500
0.000000 0.630871 0.082500
0.045218 0.635380 0.082500
0.091216 0.650047 0.082500
0.135058 0.672916 0.082500
0.180399 0.703458 0.082500
0.226170 0.741076 0.082500
0.279570 0.778754 0.082500
0.343335 0.816601 0.082500
0.420403 0.852047 0.082500
0.520600 0.882769 0.082500
0.650047 0.908784 0.082500
0.812997 0.925385 0.082500
1.000000 0.934130 0.082500
0.000000 0.801610 0.082500
0.037364 0.804474 0.082500
0.074615 0.812997 0.082500
0.113804 0.825748 0.082500
0.154657 0.842802 0.082500
0.199122 0.863525 0.082500
0.251612 0.884028 0.082500
0.317469 0.904654 0.082500
0.397698 0.923836 0.082500
0.500934 0.940528 0.082500
0.635380 0.954782 0.082500
0.804474 0.962636 0.082500
1.000000 0.966290 0.082500
0.000000 1.000000 0.082500
0.033710 1.000000 0.082500
0.065870 1.000000 0.082500
0.103872 1.000000 0.082500
0.142771 1.000000 0.082500
0.188426 1.000000 0.082500
0.241269 1.000000 0.082500
0.308393 1.000000 0.082500
0.390448 1.000000 0.082500
0.494366 1.000000 0.082500
0.630871 1.000000 0.082500
0.801610 1.000000 0.082500
1.000000 1.000000 0.082500
0.000000 0.000000 0.165000
0.198391 0.000000 0.165000
0.369129 0.000000 0.165000
0.505634 0.000000 0.165000
0.609552 0.000000 0.165000
0.691607 0.000000 0.165000
0.758731 0.000000 0.165000
0.811574 0.000000 0.165000
0.857229 0.000000 0.165000
0.896128 0.000000 0.165000
0.934130 0.000000 0.165000
0.966290 0.000000 0.165000
1.000000 0.000000 0.165000
0.000000 0.033710 0.165000
0.195527 0.037364 0.165000
0.364620 0.045218 0.165000
0.499066 0.059472 0.165000
0.602302 0.076164 0.165000
0.682531 0.095346 0.165000
0.748388 0.115973 0.165000
0.800878 0.136475 0.165000
0.845342 0.157199 0.165000
0.886196 0.174252 0.165000
0.925385 0.187003 0.165000
0.962636 0.195527 0.165000
1.000000 0.198391 0.165000
0.000000 0.065870 0.165000
0.187003 0.074615 0.165000
0.349953 0.091216 0.165000
0.479400 0.117231 0.165000
0.579597 0.147953 0.165000
0.656665 0.183399 0.165000
0.720430 0.221246 0.165000
0.773831 0.258924 0.165000
0.819601 0.296542 0.165000
0.864942 0.327084 0.165000
0.908784 0.349953 0.165000
0.954782 0.364620 0.165000
1.000000 0.369129 0.165000
0.000000 0.103872 0.165000
0.174252 0.113804 0.165000
0.327084 0.135058 0.165000
0.449339 0.170944 0.165000
0.545349 0.213576 0.165000
0.617380 0.262118 0.165000
0.676786 0.313717 0.165000
0.729681 0.362300 0.165000
0.777622 0.409747 0.165000
0.829056 0.449339 0.165000
0.882769 0.479400 0.165000
0.940528 0.499066 0.165000
1.000000 0.505634 0.165000
0.000000 0.142771 0.165000
0.157199 0.154657 0.165000
0.296542 0.180399 0.165000
0.409747 0.222378 0.165000
0.502049 0.274674 0.165000
0.567601 0.332519 0.165000
0.622578 0.393472 0.165000
0.674731 0.449594 0.165000
0.725326 0.502049 0.165000
0.786424 0.545349 0.165000
0.852047 0.579597 0.165000
0.923836 0.602302 0.165000
1.000000 0.609552 0.165000
0.000000 0.188426 0.165000
0.136475 0.199122 0.165000
0.258924 0.226169 0.165000
0.362300 0.270319 0.165000
0.449594 0.325269 0.165000
0.510618 0.385730 0.165000
0.562908 0.449337 0.165000
0.614270 0.510618 0.165000
0.667481 0.567601 0.165000
0.737882 0.617380 0.165000
0.816601 0.656665 0.165000
0.904654 0.682531 0.165000
1.000000 0.691607 0.165000
0.000000 0.241269 0.165000
0.115973 0.251612 0.165000
0.221246 0.279570 0.165000
0.313717 0.323214 0.165000
0.393472 0.377422 0.165000
0.449337 0.437092 0.165000
0.500000 0.500000 0.165000
0.550663 0.562908 0.165000
0.606528 0.622578 0.165000
0.686283 0.676786 0.165000
0.778754 0.720430 0.165000
0.884028 0.748388 0.165000
1.000000 0.758731 0.165000
0.000000 0.308393 0.165000
0.095346 0.317469 0.165000
0.183399 0.343335 0.165000
0.262118 0.382620 0.165000
0.332519 0.432399 0.165000
0.385730 0.489382 0.165000
0.437092 0.550663 0.165000
0.489382 0.614270 0.165000
0.550406 0.674731 0.165000
0.637700 0.729681 0.165000
0.741076 0.773830 0.165000
0.863525 0.800878 0.165000
1.000000 0.811574 0.165000
0.000000 0.390448 0.165000
0.076164 0.397698 0.165000
0.147953 0.420403 0.165000
0.213576 0.454651 0.165000
0.274674 0.497951 0.165000
0.325269 0.550406 0.165000
0.377422 0.606528 0.165000
0.432399 0.667481 0.165000
0.497951 0.725326 0.165000
0.590253 0.777622 0.165000
0.703458 0.819601 0.165000
0.842802 0.845343 0.165000
1.000000 0.857229 0.165000
0.000000 0.494366 0.165000
0.059472 0.500934 0.165000
0.117231 0.520600 0.165000
0.170944 0.550661 0.165000
0.222378 0.590253 0.165000
0.270319 0.637700 0.165000
0.323214 0.686283 0.165000
0.382620 0.737882 0.165000
0.454651 0.786424 0.165000
0.550661 0.829056 0.165000
0.672916 0.864942 0.165000
0.825748 0.886196 0.165000
1.000000 0.896128 0.165000
0.000000 0.630871 0.165000
0.045218 0.635380 0.165000
0.091216 0.650047 0.165000
0.135058 0.672916 0.165000
0.180399 0.703458 0.165000
0.226170 0.741076 0.165000
0.279570 0.778754 0.165000
0.343335 0.816601 0.165000
0.420403 0.852047 0.165000
0.520600 0.882769 0.165000
0.650047 0.908784 0.165000
0.812997 0.925385 0.165000
1.000000 0.934130 0.165000
0.000000 0.801610 0.165000
0.037364 0.804474 0.165000
0.074615 0.812997 0.165000
0.113804 0.825748 0.165000
0.154657 0.842802 0.165000
0.199122 0.863525 0.165000
0.251612 0.884028 0.165000
0.317469 0.904654 0.165000
0.397698 0.923836 0.165000
0.500934 0.940528 0.165000
0.635380 0.954782 0.165000
0.804474 0.962636 0.165000
1.000000 0.966290 0.165000
0.000000 1.000000 0.165000
0.033710 1.000000 0.165000
0.065870 1.000000 0.165000
0.103872 1.000000 0.165000
0.142771 1.000000 0.165000
0.188426 1.000000 0.165000
0.241269 1.000000 0.165000
0.308393 1.000000 0.165000
0.390448 1.000000 0.165000
0.494366 1.000000 0.165000
0.630871 1.000000 0.165000
0.801610 1.000000 0.165000
1.000000 1.000000 0.165000
0.000000 0.000000 0.247500
0.198391 0.000000 0.247500
0.369129 0.000000 0.247500
0.505634 0.000000 0.247500
0.609552 0.000000 0.247500
0.691607 0.000000 0.247500
0.758731 0.000000 0.247500
0.811574 0.000000 0.247500
0.857229 0.000000 0.247500
0.896128 0.000000 0.247500
0.934130 0.000000 0.247500
0.966290 0.000000 0.247500
1.000000 0.000000 0.247500
0.000000 0.033710 0.247500
0.195527 0.037364 0.247500
0.364620 0.045218 0.247500
0.499066 0.059472 0.247500
0.602302 0.076164 0.247500
0.682531 0.095346 0.247500
0.748388 0.115973 0.247500
0.800878 0.136475 0.247500
0.845342 0.157199 0.247500
0.886196 0.174252 0.247500
0.925385 0.187003 0.247500
0.962636 0.195527 0.247500
1.000000 0.198391 0.247500
0.000000 0.065870 0.247500
0.187003 0.074615 0.247500
0.349953 0.091216 0.247500
0.479400 0.117231 0.247500
0.579597 0.147953 0.247500
0.656665 0.183399 0.247500
0.720430 0.221246 0.247500
0.773831 0.258924 0.247500
0.819601 0.296542 0.247500
0.864942 0.327084 0.247500
0.908784 0.349953 0.247500
0.954782 0.364620 0.247500
1.000000 0.369129 0.247500
0.000000 0.103872 0.247500
0.174252 0.113804 0.247500
0.327084 0.135058 0.247500
0.449339 0.170944 0.247500
0.545349 0.213576 0.247500
0.617380 0.262118 0.247500
0.676786 0.313717 0.247500
0.729681 0.362300 0.247500
0.777622 0.409747 0.247500
0.829056 0.449339 0.247500
0.882769 0.479400 0.247500
0.940528 0.499066 0.247500
1.000000 0.505634 0.247500
0.000000 0.142771 0.247500
0.157199 0.154657 0.247500
0.296542 0.180399 0.247500
0.409747 0.222378 0.247500
0.502049 0.274674 0.247500
0.567601 0.332519 0.247500
0.622578 0.393472 0.247500
0.674731 0.449594 0.247500
0.725326 0.502049 0.247500
0.786424 0.545349 0.247500
0.852047 0.579597 0.247500
0.923836 0.602302 0.247500
1.000000 0.609552 0.247500
0.000000 0.188426 0.247500
0.136475 0.199122 0.247500
0.258924 0.226169 0.247500
0.362300 0.270319 0.247500
0.449594 0.325269 0.247500
0.510618 0.385730 0.247500
0.562908 0.449337 0.247500
0.614270 0.510618 0.247500
0.667481 0.567601 0.247500
0.737882 0.617380 0.247500
0.816601 0.656665 0.247500
0.904654 0.682531 0.247500
1.000000 0.691607 0.247500
0.000000 0.241269 0.247500
0.115973 0.251612 0.247500
0.221246 0.279570 0.247500
0.313717 0.323214 0.247500
0.393472 0.377422 0.247500
0.449337 0.437092 0.247500
0.500000 0.500000 0.247500
0.550663 0.562908 0.247500
0.606528 0.622578 0.247500
0.686283 0.676786 0.247500
0.778754 0.720430 0.247500
0.884028 0.748388 0.247500
1.000000 0.758731 0.247500
0.000000 0.308393 0.247500
0.095346 0.317469 0.247500
0.183399 0.343335 0.247500
0.262118 0.382620 0.247500
0.332519 0.432399 0.247500
0.385730 0.489382 0.247500
0.437092 0.550663 0.247500
0.489382 0.614270 0.247500
0.550406 0.674731 0.247500
0.637700 0.729681 0.247500
0.741076 0.773830 0.247500
0.863525 0.800878 0.247500
1.000000 0.811574 0.247500
0.000000 0.390448 0.247500
0.076164 0.397698 0.247500
0.147953 0.420403 0.247500
0.213576 0.454651 0.247500
0.274674 0.497951 0.247500
0.325269 0.550406 0.247500
0.377422 0.606528 0.247500
0.432399 0.667481 0.247500
0.497951 0.725326 0.247500
0.590253 0.777622 0.247500
0.703458 0.819601 0.247500
0.842802 0.845343 0.247500
1.000000 0.857229 0.247500
0.000000 0.494366 0.247500
0.059472 0.500934 0.247500
0.117231 0.520600 0.247500
0.170944 0.550661 0.247500
0.222378 0.590253 0.247500
0.270319 0.637700 0.247500
0.323214 0.686283 0.247500
0.382620 0.737882 0.247500
0.454651 0.786424 0.247500
0.550661 0.829056 0.247500
0.672916 0.864942 0.247500
0.825748 0.886196 0.247500
1.000000 0.896128 0.247500
0.000000 0.630871 0.247500
0.045218 0.635380 0.247500
0.091216 0.650047 0.247500
0.135058 0.672916 0.247500
0.180399 0.703458 0.247500
0.226170 0.741076 0.247500
0.279570 0.778754 0.247500
0.343335 0.816601 0.247500
0.420403 0.852047 0.247500
0.520600 0.882769 0.247500
0.650047 0.908784 0.247500
0.812997 0.925385 0.247500
1.000000 0.934130 0.247500
0.000000 0.801610 0.247500
0.037364 0.804474 0.247500
0.074615 0.812997 0.247500
0.113804 0.825748 0.247500
0.154657 0.842802 0.247500
0.199122 0.863525 0.247500
0.251612 0.884028 0.247500
0.317469 0.904654 0.247500
0.397698 0.923836 0.247500
0.500934 0.940528 0.247500
0.635380 0.954782 0.247500
0.804474 0.962636 0.247500
1.000000 0.966290 0.247500
0.000000 1.000000 0.247500
0.033710 1.000000 0.247500
0.065870 1.000000 0.247500
0.103872 1.000000 0.247500
0.142771 1.000000 0.247500
0.188426 1.000000 0.247500
0.241269 1.000000 0.247500
0.308393 1.000000 0.247500
0.390448 1.000000 0.247500
0.494366 1.000000 0.247500
0.630871 1.000000 0.247500
0.801610 1.000000 0.247500
1.000000 1.000000 0.247500
0.000000 0.000000 0.330000
0.198391 0.000000 0.330000
0.369129 0.000000 0.330000
0.505634 0.000000 0.330000
0.609552 0.000000 0.330000
0.691607 0.000000 0.330000
0.758731 0.000000 0.330000
0.811574 0.000000 0.330000
0.857229 0.000000 0.330000
0.896128 0.000000 0.330000
0.934130 0.000000 0.330000
0.966290 0.000000 0.330000
1.000000 0.000000 0.330000
0.000000 0.033710 0.330000
0.195527 0.037364 0.330000
0.364620 0.045218 0.330000
0.499066 0.059472 0.330000
0.602302 0.076164 0.330000
0.682531 0.095346 0.330000
0.748388 0.115973 0.330000
0.800878 0.136475 0.330000
0.845342 0.157199 0.330000
0.886196 0.174252 0.330000
0.925385 0.187003 0.330000
0.962636 0.195527 0.330000
1.000000 0.198391 0.330000
0.000000 0.065870 0.330000
0.187003 0.074615 0.330000
0.349953 0.091216 0.330000
0.479400 0.117231 0.330000
0.579597 0.147953 0.330000
0.656665 0.183399 0.330000
0.720430 0.221246 0.330000
0.773831 0.258924 0.330000
0.819601 0.296542 0.330000
0.864942 0.327084 0.330000
0.908784 0.349953 0.330000
0.954782 0.364620 0.330000
1.000000 0.369129 0.330000
0.000000 0.103872 0.330000
0.174252 0.113804 0.330000
0.327084 0.135058 0.330000
0.449339 0.170944 0.330000
0.545349 0.213576 0.330000
0.617380 0.262118 0.330000
0.676786 0.313717 0.330000
0.729681 0.362300 0.330000
0.777622 0.409747 0.330000
0.829056 0.449339 0.330000
0.882769 0.479400 0.330000
0.940528 0.499066 0.330000
1.000000 0.505634 0.330000
0.000000 0.142771 0.330000
0.157199 0.154657 0.330000
0.296542 0.180399 0.330000
0.409747 0.222378 0.330000
0.502049 0.274674 0.330000
0.567601 0.332519 0.330000
0.622578 0.393472 0.330000
0.674731 0.449594 0.330000
0.725326 0.502049 0.330000
0.786424 0.545349 0.330000
0.852047 0.579597 0.330000