# vtk DataFile Version 2.0
Mesh for Fierro
ASCII 
DATASET UNSTRUCTURED_GRID

POINTS 845 float
0.000000 0.000000 0.000000
0.564066 0.000000 0.000000
0.852208 0.000000 0.000000
0.890114 0.000000 0.000000
0.919746 0.000000 0.000000
0.939607 0.000000 0.000000
0.954666 0.000000 0.000000
0.964708 0.000000 0.000000
0.971675 0.000000 0.000000
0.977000 0.000000 0.000000
0.982665 0.000000 0.000000
0.990672 0.000000 0.000000
1.000000 0.000000 0.000000
0.000000 0.009328 0.000000
0.570537 0.017905 0.000000
0.817267 0.077196 0.000000
0.856296 0.157999 0.000000
0.889005 0.237793 0.000000
0.902155 0.320820 0.000000
0.912414 0.399269 0.000000
0.922240 0.472029 0.000000
0.932368 0.530778 0.000000
0.945831 0.568941 0.000000
0.961414 0.589532 0.000000
0.982096 0.570537 0.000000
1.000000 0.564066 0.000000
0.000000 0.017335 0.000000
0.589532 0.038586 0.000000
0.770964 0.138026 0.000000
0.831392 0.250949 0.000000
0.838156 0.402477 0.000000
0.845498 0.493291 0.000000
0.842261 0.578089 0.000000
0.828611 0.636960 0.000000
0.819776 0.683595 0.000000
0.827851 0.726748 0.000000
0.861974 0.770964 0.000000
0.922805 0.817267 0.000000
1.000000 0.852208 0.000000
0.000000 0.023000 0.000000
0.568941 0.054169 0.000000
0.726748 0.172149 0.000000
0.797537 0.304673 0.000000
0.764487 0.442826 0.000000
0.764986 0.534633 0.000000
0.726680 0.613133 0.000000
0.692392 0.680119 0.000000
0.676633 0.743609 0.000000
0.695327 0.797537 0.000000
0.749051 0.831393 0.000000
0.842002 0.856296 0.000000
1.000000 0.890115 0.000000
0.000000 0.028325 0.000000
0.530778 0.067632 0.000000
0.683595 0.180224 0.000000
0.743609 0.323367 0.000000
0.701761 0.450158 0.000000
0.675902 0.546512 0.000000
0.615958 0.604510 0.000000
0.582451 0.658409 0.000000
0.549842 0.701761 0.000000
0.557174 0.764487 0.000000
0.597523 0.838156 0.000000
0.762208 0.889005 0.000000
1.000000 0.919746 0.000000
0.000000 0.035292 0.000000
0.472029 0.077760 0.000000
0.636960 0.171389 0.000000
0.680119 0.307608 0.000000
0.658409 0.417549 0.000000
0.614642 0.502680 0.000000
0.552841 0.556569 0.000000
0.497320 0.614642 0.000000
0.453488 0.675902 0.000000
0.465367 0.764986 0.000000
0.506710 0.845498 0.000000
0.679181 0.902155 0.000000
1.000000 0.939607 0.000000
0.000000 0.045334 0.000000
0.399269 0.087586 0.000000
0.578089 0.157739 0.000000
0.613133 0.273320 0.000000
0.604510 0.384042 0.000000
0.556569 0.447159 0.000000
0.500000 0.500000 0.000000
0.443431 0.552841 0.000000
0.395490 0.615958 0.000000
0.386867 0.726680 0.000000
0.421911 0.842260 0.000000
0.600733 0.912414 0.000000
1.000000 0.954666 0.000000
0.000000 0.060393 0.000000
0.320820 0.097845 0.000000
0.493291 0.154502 0.000000
0.534633 0.235014 0.000000
0.546512 0.324098 0.000000
0.502680 0.385358 0.000000
0.447159 0.443431 0.000000
0.385358 0.497320 0.000000
0.341590 0.582451 0.000000
0.319881 0.692392 0.000000
0.363040 0.828611 0.000000
0.527972 0.922241 0.000000
1.000000 0.964708 0.000000
0.000000 0.080254 0.000000
0.237793 0.110995 0.000000
0.402477 0.161844 0.000000
0.442826 0.235513 0.000000
0.450158 0.298239 0.000000
0.417549 0.341590 0.000000
0.384042 0.395490 0.000000
0.324098 0.453488 0.000000
0.298239 0.549842 0.000000
0.256391 0.676633 0.000000
0.316405 0.819776 0.000000
0.469223 0.932368 0.000000
1.000000 0.971675 0.000000
0.000000 0.109886 0.000000
0.157998 0.143704 0.000000
0.250949 0.168607 0.000000
0.304673 0.202463 0.000000
0.323367 0.256391 0.000000
0.307608 0.319881 0.000000
0.273320 0.386867 0.000000
0.235014 0.465367 0.000000
0.235513 0.557174 0.000000
0.202463 0.695327 0.000000
0.273252 0.827851 0.000000
0.431060 0.945831 0.000000
1.000000 0.977000 0.000000
0.000000 0.147793 0.000000
0.077196 0.182733 0.000000
0.138026 0.229036 0.000000
0.172149 0.273252 0.000000
0.180224 0.316405 0.000000
0.171389 0.363040 0.000000
0.157740 0.421911 0.000000
0.154502 0.506710 0.000000
0.161844 0.597523 0.000000
0.168607 0.749051 0.000000
0.229036 0.861974 0.000000
0.410468 0.961414 0.000000
1.000000 0.982665 0.000000
0.000000 0.435934 0.000000
0.017905 0.429464 0.000000
0.038586 0.410468 0.000000
0.054169 0.431060 0.000000
0.067632 0.469223 0.000000
0.077759 0.527972 0.000000
0.087586 0.600733 0.000000
0.097845 0.679181 0.000000
0.110995 0.762208 0.000000
0.143704 0.842002 0.000000
0.182733 0.922805 0.000000
0.429463 0.982096 0.000000
1.000000 0.990672 0.000000
0.000000 1.000000 0.000000
0.009328 1.000000 0.000000
0.017335 1.000000 0.000000
0.023000 1.000000 0.000000
0.028325 1.000000 0.000000
0.035292 1.000000 0.000000
0.045334 1.000000 0.000000
0.060393 1.000000 0.000000
0.080254 1.000000 0.000000
0.109886 1.000000 0.000000
0.147793 1.000000 0.000000
0.435934 1.000000 0.000000
1.000000 1.000000 0.000000
0.000000 0.000000 0.082500
0.564066 0.000000 0.082500
0.852208 0.000000 0.082500
0.890114 0.000000 0.082500
0.919746 0.000000 0.082500
0.939607 0.000000 0.082500
0.954666 0.000000 0.082500
0.964708 0.000000 0.082500
0.971675 0.000000 0.082500
0.977000 0.000000 0.082500
0.982665 0.000000 0.082500
0.990672 0.000000 0.082500
1.000000 0.000000 0.082500
0.000000 0.009328 0.082500
0.570537 0.017905 0.082500
0.817267 0.077196 0.082500
0.856296 0.157999 0.082500
0.889005 0.237793 0.082500
0.902155 0.320820 0.082500
0.912414 0.399269 0.082500
0.922240 0.472029 0.082500
0.932368 0.530778 0.082500
0.945831 0.568941 0.082500
0.961414 0.589532 0.082500
0.982096 0.570537 0.082500
1.000000 0.564066 0.082500
0.000000 0.017335 0.082500
0.589532 0.038586 0.082500
0.770964 0.138026 0.082500
0.831392 0.250949 0.082500
0.838156 0.402477 0.082500
0.845498 0.493291 0.082500
0.842261 0.578089 0.082500
0.828611 0.636960 0.082500
0.819776 0.683595 0.082500
0.827851 0.726748 0.082500
0.861974 0.770964 0.082500
0.922805 0.817267 0.082500
1.000000 0.852208 0.082500
0.000000 0.023000 0.082500
0.568941 0.054169 0.082500
0.726748 0.172149 0.082500
0.797537 0.304673 0.082500
0.764487 0.442826 0.082500
0.764986 0.534633 0.082500
0.726680 0.613133 0.082500
0.692392 0.680119 0.082500
0.676633 0.743609 0.082500
0.695327 0.797537 0.082500
0.749051 0.831393 0.082500
0.842002 0.856296 0.082500
1.000000 0.890115 0.082500
0.000000 0.028325 0.082500
0.530778 0.067632 0.082500
0.683595 0.180224 0.082500
0.743609 0.323367 0.082500
0.701761 0.450158 0.082500
0.675902 0.546512 0.082500
0.615958 0.604510 0.082500
0.582451 0.658409 0.082500
0.549842 0.701761 0.082500
0.557174 0.764487 0.082500
0.597523 0.838156 0.082500
0.762208 0.889005 0.082500
1.000000 0.919746 0.082500
0.000000 0.035292 0.082500
0.472029 0.077760 0.082500
0.636960 0.171389 0.082500
0.680119 0.307608 0.082500
0.658409 0.417549 0.082500
0.614642 0.502680 0.082500
0.552841 0.556569 0.082500
0.497320 0.614642 0.082500
0.453488 0.675902 0.082500
0.465367 0.764986 0.082500
0.506710 0.845498 0.082500
0.679181 0.902155 0.082500
1.000000 0.939607 0.082500
0.000000 0.045334 0.082500
0.399269 0.087586 0.082500
0.578089 0.157739 0.082500
0.613133 0.273320 0.082500
0.604510 0.384042 0.082500
0.556569 0.447159 0.082500
0.500000 0.500000 0.082500
0.443431 0.552841 0.082500
0.395490 0.615958 0.082500
0.386867 0.726680 0.082500
0.421911 0.842260 0.082500
0.600733 0.912414 0.082500
1.000000 0.954666 0.082500
0.000000 0.060393 0.082500
0.320820 0.097845 0.082500
0.493291 0.154502 0.082500
0.534633 0.235014 0.082500
0.546512 0.324098 0.082500
0.502680 0.385358 0.082500
0.447159 0.443431 0.082500
0.385358 0.497320 0.082500
0.341590 0.582451 0.082500
0.319881 0.692392 0.082500
0.363040 0.828611 0.082500
0.527972 0.922241 0.082500
1.000000 0.964708 0.082500
0.000000 0.080254 0.082500
0.237793 0.110995 0.082500
0.402477 0.161844 0.082500
0.442826 0.235513 0.082500
0.450158 0.298239 0.082500
0.417549 0.341590 0.082500
0.384042 0.395490 0.082500
0.324098 0.453488 0.082500
0.298239 0.549842 0.082500
0.256391 0.676633 0.082500
0.316405 0.819776 0.082500
0.469223 0.932368 0.082500
1.000000 0.971675 0.082500
0.000000 0.109886 0.082500
0.157998 0.143704 0.082500
0.250949 0.168607 0.082500
0.304673 0.202463 0.082500
0.323367 0.256391 0.082500
0.307608 0.319881 0.082500
0.273320 0.386867 0.082500
0.235014 0.465367 0.082500
0.235513 0.557174 0.082500
0.202463 0.695327 0.082500
0.273252 0.827851 0.082500
0.431060 0.945831 0.082500
1.000000 0.977000 0.082500
0.000000 0.147793 0.082500
0.077196 0.182733 0.082500
0.138026 0.229036 0.082500
0.172149 0.273252 0.082500
0.180224 0.316405 0.082500
0.171389 0.363040 0.082500
0.157740 0.421911 0.082500
0.154502 0.506710 0.082500
0.161844 0.597523 0.082500
0.168607 0.749051 0.082500
0.229036 0.861974 0.082500
0.410468 0.961414 0.082500
1.000000 0.982665 0.082500
0.000000 0.435934 0.082500
0.017905 0.429464 0.082500
0.038586 0.410468 0.082500
0.054169 0.431060 0.082500
0.067632 0.469223 0.082500
0.077759 0.527972 0.082500
0.087586 0.600733 0.082500
0.097845 0.679181 0.082500
0.110995 0.762208 0.082500
0.143704 0.842002 0.082500
0.182733 0.922805 0.082500
0.429463 0.982096 0.082500
1.000000 0.990672 0.082500
0.000000 1.000000 0.082500
0.009328 1.000000 0.082500
0.017335 1.000000 0.082500
0.023000 1.000000 0.082500
0.028325 1.000000 0.082500
0.035292 1.000000 0.082500
0.045334 1.000000 0.082500
0.060393 1.000000 0.082500
0.080254 1.000000 0.082500
0.109886 1.000000 0.082500
0.147793 1.000000 0.082500
0.435934 1.000000 0.082500
1.000000 1.000000 0.082500
0.000000 0.000000 0.165000
0.564066 0.000000 0.165000
0.852208 0.000000 0.165000
0.890114 0.000000 0.165000
0.919746 0.000000 0.165000
0.939607 0.000000 0.165000
0.954666 0.000000 0.165000
0.964708 0.000000 0.165000
0.971675 0.000000 0.165000
0.977000 0.000000 0.165000
0.982665 0.000000 0.165000
0.990672 0.000000 0.165000
1.000000 0.000000 0.165000
0.000000 0.009328 0.165000
0.570537 0.017905 0.165000
0.817267 0.077196 0.165000
0.856296 0.157999 0.165000
0.889005 0.237793 0.165000
0.902155 0.320820 0.165000
0.912414 0.399269 0.165000
0.922240 0.472029 0.165000
0.932368 0.530778 0.165000
0.945831 0.568941 0.165000
0.961414 0.589532 0.165000
0.982096 0.570537 0.165000
1.000000 0.564066 0.165000
0.000000 0.017335 0.165000
0.589532 0.038586 0.165000
[...]
POINT_DATA 845 
VECTORS pos float 
0.000000 0.000000 0.000000
0.564066 0.000000 0.000000
0.852208 0.000000 0.000000
0.890114 0.000000 0.000000
0.919746 0.000000 0.000000
0.939607 0.000000 0.000000
0.954666 0.000000 0.000000
0.964708 0.000000 0.000000
0.971675 0.000000 0.000000
0.977000 0.000000 0.000000
0.982665 0.000000 0.000000
0.990672 0.000000 0.000000
1.000000 0.000000 0.000000
0.000000 0.009328 0.000000
0.570537 0.017905 0.000000
0.817267 0.077196 0.000000
0.856296 0.157999 0.000000
0.889005 0.237793 0.000000
0.902155 0.320820 0.000000
0.912414 0.399269 0.000000
0.922240 0.472029 0.000000
0.932368 0.530778 0.000000
0.945831 0.568941 0.000000
0.961414 0.589532 0.000000
0.982096 0.570537 0.000000
1.000000 0.564066 0.000000
0.000000 0.017335 0.000000
0.589532 0.038586 0.000000
0.770964 0.138026 0.000000
0.831392 0.250949 0.000000
0.838156 0.402477 0.000000
0.845498 0.493291 0.000000
0.842261 0.578089 0.000000
0.828611 0.636960 0.000000
0.819776 0.683595 0.000000
0.827851 0.726748 0.000000
0.861974 0.770964 0.000000
0.922805 0.817267 0.000000
1.000000 0.852208 0.000000
0.000000 0.023000 0.000000
0.568941 0.054169 0.000000
0.726748 0.172149 0.000000
0.797537 0.304673 0.000000
0.764487 0.442826 0.000000
0.764986 0.534633 0.000000
0.726680 0.613133 0.000000
0.692392 0.680119 0.000000
0.676633 0.743609 0.000000
0.695327 0.797537 0.000000
0.749051 0.831393 0.000000
0.842002 0.856296 0.000000
1.000000 0.890115 0.000000
0.000000 0.028325 0.000000
0.530778 0.067632 0.000000
0.683595 0.180224 0.000000
0.743609 0.323367 0.000000
0.701761 0.450158 0.000000
0.675902 0.546512 0.000000
0.615958 0.604510 0.000000
0.582451 0.658409 0.000000
0.549842 0.701761 0.000000
0.557174 0.764487 0.000000
0.597523 0.838156 0.000000
0.762208 0.889005 0.000000
1.000000 0.919746 0.000000
0.000000 0.035292 0.000000
0.472029 0.077760 0.000000
0.636960 0.171389 0.000000
0.680119 0.307608 0.000000
0.658409 0.417549 0.000000
0.614642 0.502680 0.000000
0.552841 0.556569 0.000000
0.497320 0.614642 0.000000
0.453488 0.675902 0.000000
0.465367 0.764986 0.000000
0.506710 0.845498 0.000000
0.679181 0.902155 0.000000
1.000000 0.939607 0.000000
0.000000 0.045334 0.000000
0.399269 0.087586 0.000000
0.578089 0.157739 0.000000
0.613133 0.273320 0.000000
0.604510 0.384042 0.000000
0.556569 0.447159 0.000000
0.500000 0.500000 0.000000
0.443431 0.552841 0.000000
0.395490 0.615958 0.000000
0.386867 0.726680 0.000000
0.421911 0.842260 0.000000
0.600733 0.912414 0.000000
1.000000 0.954666 0.000000
0.000000 0.060393 0.000000
0.320820 0.097845 0.000000
0.493291 0.154502 0.000000
0.534633 0.235014 0.000000
0.546512 0.324098 0.000000
0.502680 0.385358 0.000000
0.447159 0.443431 0.000000
0.385358 0.497320 0.000000
0.341590 0.582451 0.000000
0.319881 0.692392 0.000000
0.363040 0.828611 0.000000
0.527972 0.922241 0.000000
1.000000 0.964708 0.000000
0.000000 0.080254 0.000000
0.237793 0.110995 0.000000
0.402477 0.161844 0.000000
0.442826 0.235513 0.000000
0.450158 0.298239 0.000000
0.417549 0.341590 0.000000
0.384042 0.395490 0.000000
0.324098 0.453488 0.000000
0.298239 0.549842 0.000000
0.256391 0.676633 0.000000
0.316405 0.819776 0.000000
0.469223 0.932368 0.000000
1.000000 0.971675 0.000000
0.000000 0.109886 0.000000
0.157998 0.143704 0.000000
0.250949 0.168607 0.000000
0.304673 0.202463 0.000000
0.323367 0.256391 0.000000
0.307608 0.319881 0.000000
0.273320 0.386867 0.000000
0.235014 0.465367 0.000000
0.235513 0.557174 0.000000
0.202463 0.695327 0.000000
0.273252 0.827851 0.000000
0.431060 0.945831 0.000000
1.000000 0.977000 0.000000
0.000000 0.147793 0.000000
0.077196 0.182733 0.000000
0.138026 0.229036 0.000000
0.172149 0.273252 0.000000
0.180224 0.316405 0.000000
0.171389 0.363040 0.000000
0.157740 0.421911 0.000000
0.154502 0.506710 0.000000
0.161844 0.597523 0.000000
0.168607 0.749051 0.000000
0.229036 0.861974 0.000000
0.410468 0.961414 0.000000
1.000000 0.982665 0.000000
0.000000 0.435934 0.000000
0.017905 0.429464 0.000000
0.038586 0.410468 0.000000
0.054169 0.431060 0.000000
0.067632 0.469223 0.000000
0.077759 0.527972 0.000000
0.087586 0.600733 0.000000
0.097845 0.679181 0.000000
0.110995 0.762208 0.000000
0.143704 0.842002 0.000000
0.182733 0.922805 0.000000
0.429463 0.982096 0.000000
1.000000 0.990672 0.000000
0.000000 1.000000 0.000000
0.009328 1.000000 0.000000
0.017335 1.000000 0.000000
0.023000 1.000000 0.000000
0.028325 1.000000 0.000000
0.035292 1.000000 0.000000
0.045334 1.000000 0.000000
0.060393 1.000000 0.000000
0.080254 1.000000 0.000000
0.109886 1.000000 0.000000
0.147793 1.000000 0.000000
0.435934 1.000000 0.000000
1.000000 1.000000 0.000000
0.000000 0.000000 0.082500
0.564066 0.000000 0.082500
0.852208 0.000000 0.082500
0.890114 0.000000 0.082500
0.919746 0.000000 0.082500
0.939607 0.000000 0.082500
0.954666 0.000000 0.082500
0.964708 0.000000 0.082500
0.971675 0.000000 0.082500
0.977000 0.000000 0.082500
0.982665 0.000000 0.082500
0.990672 0.000000 0.082500
1.000000 0.000000 0.082500
0.000000 0.009328 0.082500
0.570537 0.017905 0.082500
0.817267 0.077196 0.082500
0.856296 0.157999 0.082500
0.889005 0.237793 0.082500
0.902155 0.320820 0.082500
0.912414 0.399269 0.082500
0.922240 0.472029 0.082500
0.932368 0.530778 0.082500
0.945831 0.568941 0.082500
0.961414 0.589532 0.082500
0.982096 0.570537 0.082500
1.000000 0.564066 0.082500
0.000000 0.017335 0.082500
0.589532 0.038586 0.082500
0.770964 0.138026 0.082500
0.831392 0.250949 0.082500
0.838156 0.402477 0.082500
0.845498 0.493291 0.082500
0.842261 0.578089 0.082500
0.828611 0.636960 0.082500
0.819776 0.683595 0.082500
0.827851 0.726748 0.082500
0.861974 0.770964 0.082500
0.922805 0.817267 0.082500
1.000000 0.852208 0.082500
0.000000 0.023000 0.082500
0.568941 0.054169 0.082500
0.726748 0.172149 0.082500
0.797537 0.304673 0.082500
0.764487 0.442826 0.082500
0.764986 0.534633 0.082500
0.726680 0.613133 0.082500
0.692392 0.680119 0.082500
0.676633 0.743609 0.082500
0.695327 0.797537 0.082500
0.749051 0.831393 0.082500
0.842002 0.856296 0.082500
1.000000 0.890115 0.082500
0.000000 0.028325 0.082500
0.530778 0.067632 0.082500
0.683595 0.180224 0.082500
0.743609 0.323367 0.082500
0.701761 0.450158 0.082500
0.675902 0.546512 0.082500
0.615958 0.604510 0.082500
0.582451 0.658409 0.082500
0.549842 0.701761 0.082500
0.557174 0.764487 0.082500
0.597523 0.838156 0.082500
0.762208 0.889005 0.082500
1.000000 0.919746 0.082500
0.000000 0.035292 0.082500
0.472029 0.077760 0.082500
0.636960 0.171389 0.082500
0.680119 0.307608 0.082500
0.658409 0.417549 0.082500
0.614642 0.502680 0.082500
0.552841 0.556569 0.082500
0.497320 0.614642 0.082500
0.453488 0.675902 0.082500
0.465367 0.764986 0.082500
0.506710 0.845498 0.082500
0.679181 0.902155 0.082500
1.000000 0.939607 0.082500
0.000000 0.045334 0.082500
0.399269 0.087586 0.082500
0.578089 0.157739 0.082500
0.613133 0.273320 0.082500
0.604510 0.384042 0.082500
0.556569 0.447159 0.082500
0.500000 0.500000 0.082500
0.443431 0.552841 0.082500
0.395490 0.615958 0.082500
0.386867 0.726680 0.082500
0.421911 0.842260 0.082500
0.600733 0.912414 0.082500
1.000000 0.954666 0.082500
0.000000 0.060393 0.082500
0.320820 0.097845 0.082500
0.493291 0.154502 0.082500
0.534633 0.235014 0.082500
0.546512 0.324098 0.082500
0.502680 0.385358 0.082500
0.447159 0.443431 0.082500
0.385358 0.497320 0.082500
0.341590 0.582451 0.082500
0.319881 0.692392 0.082500
0.363040 0.828611 0.082500
0.527972 0.922241 0.082500
1.000000 0.964708 0.082500
0.000000 0.080254 0.082500
0.237793 0.110995 0.082500
0.402477 0.161844 0.082500
0.442826 0.235513 0.082500
0.450158 0.298239 0.082500
0.417549 0.341590 0.082500
0.384042 0.395490 0.082500
0.324098 0.453488 0.082500
0.298239 0.549842 0.082500
0.256391 0.676633 0.082500
0.316405 0.819776 0.082500
0.469223 0.932368 0.082500
1.000000 0.971675 0.082500
0.000000 0.109886 0.082500
0.157998 0.143704 0.082500
0.250949 0.168607 0.082500
0.304673 0.202463 0.082500
0.323367 0.256391 0.082500
0.307608 0.319881 0.082500
0.273320 0.386867 0.082500
0.235014 0.465367 0.082500
0.235513 0.557174 0.082500
0.202463 0.695327 0.082500
0.273252 0.827851 0.082500
0.431060 0.945831 0.082500
1.000000 0.977000 0.082500
0.000000 0.147793 0.082500
0.077196 0.182733 0.082500
0.138026 0.229036 0.082500
0.172149 0.273252 0.082500
0.180224 0.316405 0.082500
0.171389 0.363040 0.082500
0.157740 0.421911 0.082500
0.154502 0.506710 0.082500
0.161844 0.597523 0.082500
0.168607 0.749051 0.082500
0.229036 0.861974 0.082500
0.410468 0.961414 0.082500
1.000000 0.982665 0.082500
0.000000 0.435934 0.082500
0.017905 0.429464 0.082500
0.038586 0.410468 0.082500
0.054169 0.431060 0.082500
0.067632 0.469223 0.082500
0.077759 0.527972 0.082500
0.087586 0.600733 0.082500
0.097845 0.679181 0.082500
0.110995 0.762208 0.082500
0.143704 0.842002 0.082500
0.182733 0.922805 0.082500
0.429463 0.982096 0.082500
1.000000 0.990672 0.082500
0.000000 1.000000 0.082500
0.009328 1.000000 0.082500
0.017335 1.000000 0.082500
0.023000 1.000000 0.082500
0.028325 1.000000 0.082500
0.035292 1.000000 0.082500
0.045334 1.000000 0.082500
0.060393 1.000000 0.082500
0.080254 1.000000 0.082500
0.109886 1.000000 0.082500
0.147793 1.000000 0.082500
0.435934 1.000000 0.082500
1.000000 1.000000 0.082500
0.000000 0.000000 0.165000
0.564066 0.000000 0.165000
0.852208 0.000000 0.165000
0.890114 0.000000 0.165000
0.919746 0.000000 0.165000
0.939607 0.000000 0.165000
0.954666 0.000000 0.165000
0.964708 0.000000 0.165000
0.971675 0.000000 0.165000
0.977000 0.000000 0.165000
0.982665 0.000000 0.165000
0.990672 0.000000 0.165000
1.000000 0.000000 0.165000
0.000000 0.009328 0.165000
0.570537 0.017905 0.165000
0.817267 0.077196 0.165000
0.856296 0.157999 0.165000
0.889005 0.237793 0.165000
0.902155 0.320820 0.165000
0.912414 0.399269 0.165000
0.922240 0.472029 0.165000
0.932368 0.530778 0.165000
0.945831 0.568941 0.165000
0.961414 0.589532 0.165000
0.982096 0.570537 0.165000
1.000000 0.564066 0.165000
0.000000 0.017335 0.165000
0.589532 0.038586 0.165000
0.770964 0.138026 0.165000
0.831392 0.250949 0.165000
0.838156 0.402477 0.165000
0.845498 0.493291 0.165000
0.842261 0.578089 0.165000
0.828611 0.636960 0.165000
0.819776 0.683595 0.165000
0.827851 0.726748 0.165000
0.861974 0.770964 0.165000
0.922805 0.817267 0.165000
1.000000 0.852208 0.165000
0.000000 0.023000 0.165000
0.568941 0.054169 0.165000
0.726748 0.172149 0.165000
0.797537 0.304673 0.165000
0.764487 0.442826 0.165000
0.764986 0.534633 0.165000
0.726680 0.613133 0.165000
0.692392 0.680119 0.165000
0.676633 0.743609 0.165000
0.695327 0.797537 0.165000
0.749051 0.831393 0.165000
0.842002 0.856296 0.165000
1.000000 0.890115 0.165000
0.000000 0.028325 0.165000
0.530778 0.067632 0.165000
0.683595 0.180224 0.165000
0.743609 0.323367 0.165000
0.701761 0.450158 0.165000
0.675902 0.546512 0.165000
0.615958 0.604510 0.165000
0.582451 0.658409 0.165000
0.549842 0.701761 0.165000
0.557174 0.764487 0.165000
0.597523 0.838156 0.165000
0.762208 0.889005 0.165000
1.000000 0.919746 0.165000
0.000000 0.035292 0.165000
0.472029 0.077760 0.165000
0.636960 0.171389 0.165000
0.680119 0.307608 0.165000
0.658409 0.417549 0.165000
0.614642 0.502680 0.165000
0.552841 0.556569 0.165000
0.497320 0.614642 0.165000
0.453488 0.675902 0.165000
0.465367 0.764986 0.165000
0.506710 0.845498 0.165000
0.679181 0.902155 0.165000
1.000000 0.939607 0.165000
0.000000 0.045334 0.165000
0.399269 0.087586 0.165000
0.578089 0.157739 0.165000
0.613133 0.273320 0.165000
0.604510 0.384042 0.165000
0.556569 0.447159 0.165000
0.500000 0.500000 0.165000
0.443431 0.552841 0.165000
0.395490 0.615958 0.165000
0.386867 0.726680 0.165000
0.421911 0.842260 0.165000
0.600733 0.912414 0.165000
1.000000 0.954666 0.165000
0.000000 0.060393 0.165000
0.320820 0.097845 0.165000
0.493291 0.154502 0.165000
0.534633 0.235014 0.165000
0.546512 0.324098 0.165000
0.502680 0.385358 0.165000
0.447159 0.443431 0.165000
0.385358 0.497320 0.165000
0.341590 0.582451 0.165000
0.319881 0.692392 0.165000
0.363040 0.828611 0.165000
0.527972 0.922241 0.165000
1.000000 0.964708 0.165000
0.000000 0.080254 0.165000
0.237793 0.110995 0.165000
0.402477 0.161844 0.165000
0.442826 0.235513 0.165000
0.450158 0.298239 0.165000
0.417549 0.341590 0.165000
0.384042 0.395490 0.165000
0.324098 0.453488 0.165000
0.298239 0.549842 0.165000
0.256391 0.676633 0.165000
0.316405 0.819776 0.165000
0.469223 0.932368 0.165000
1.000000 0.971675 0.165000
0.000000 0.109886 0.165000
0.157998 0.143704 0.165000
0.250949 0.168607 0.165000
0.304673 0.202463 0.165000
0.323367 0.256391 0.165000
0.307608 0.319881 0.165000
0.273320 0.386867 0.165000
0.235014 0.465367 0.165000
0.235513 0.557174 0.165000
0.202463 0.695327 0.165000
0.273252 0.827851 0.165000
0.431060 0.945831 0.165000
1.000000 0.977000 0.165000
0.000000 0.147793 0.165000
0.077196 0.182733 0.165000
0.138026 0.229036 0.165000
0.172149 0.273252 0.165000
0.180224 0.316405 0.165000
0.171389 0.363040 0.165000
0.157740 0.421911 0.165000
0.154502 0.506710 0.165000
0.161844 0.597523 0.165000
0.168607 0.749051 0.165000
0.229036 0.861974 0.165000
0.410468 0.961414 0.165000
1.000000 0.982665 0.165000
0.000000 0.435934 0.165000
0.017905 0.429464 0.165000
0.038586 0.410468 0.165000
0.054169 0.431060 0.165000
0.067632 0.469223 0.165000
0.077759 0.527972 0.165000
0.087586 0.600733 0.165000
0.097845 0.679181 0.165000
0.110995 0.762208 0.165000
0.143704 0.842002 0.165000
0.182733 0.922805 0.165000
0.429463 0.982096 0.165000
1.000000 0.990672 0.165000
0.000000 1.000000 0.165000
0.009328 1.000000 0.165000
0.017335 1.000000 0.165000
0.023000 1.000000 0.165000
0.028325 1.000000 0.165000
0.035292 1.000000 0.165000
0.045334 1.000000 0.165000
0.060393 1.000000 0.165000
0.080254 1.000000 0.165000
0.109886 1.000000 0.165000
0.147793 1.000000 0.165000
0.435934 1.000000 0.165000
1.000000 1.000000 0.165000
0.000000 0.000000 0.247500
0.564066 0.000000 0.247500
0.852208 0.000000 0.247500
0.890114 0.000000 0.247500
0.919746 0.000000 0.247500
0.939607 0.000000 0.247500
0.954666 0.000000 0.247500
0.964708 0.000000 0.247500
0.971675 0.000000 0.247500
0.977000 0.000000 0.247500
0.982665 0.000000 0.247500
0.990672 0.000000 0.247500
1.000000 0.000000 0.247500
0.000000 0.009328 0.247500
0.570537 0.017905 0.247500
0.817267 0.077196 0.247500
0.856296 0.157999 0.247500
0.889005 0.237793 0.247500
0.902155 0.320820 0.247500
0.912414 0.399269 0.247500
0.922240 0.472029 0.247500
0.932368 0.530778 0.247500
0.945831 0.568941 0.247500
0.961414 0.589532 0.247500
0.982096 0.570537 0.247500
1.000000 0.564066 0.247500
0.000000 0.017335 0.247500
0.589532 0.038586 0.247500
0.770964 0.138026 0.247500
0.831392 0.250949 0.247500
0.838156 0.402477 0.247500
0.845498 0.493291 0.247500
0.842261 0.578089 0.247500
0.828611 0.636960 0.247500
0.819776 0.683595 0.247500
0.827851 0.726748 0.247500
0.861974 0.770964 0.247500
0.922805 0.817267 0.247500
1.000000 0.852208 0.247500
0.000000 0.023000 0.247500
0.568941 0.054169 0.247500
0.726748 0.172149 0.247500
0.797537 0.304673 0.247500
0.764487 0.442826 0.247500
0.764986 0.534633 0.247500
0.726680 0.613133 0.247500
0.692392 0.680119 0.247500
0.676633 0.743609 0.247500
0.695327 0.797537 0.247500
0.749051 0.831393 0.247500
0.842002 0.856296 0.247500
1.000000 0.890115 0.247500
0.000000 0.028325 0.247500
0.530778 0.067632 0.247500
0.683595 0.180224 0.247500
0.743609 0.323367 0.247500
0.701761 0.450158 0.247500
0.675902 0.546512 0.247500
0.615958 0.604510 0.247500
0.582451 0.658409 0.247500
0.549842 0.701761 0.247500
0.557174 0.764487 0.247500
0.597523 0.838156 0.247500
0.762208 0.889005 0.247500
1.000000 0.919746 0.247500
0.000000 0.035292 0.247500
0.472029 0.077760 0.247500
0.636960 0.171389 0.247500
0.680119 0.307608 0.247500
0.658409 0.417549 0.247500
0.614642 0.502680 0.247500
0.552841 0.556569 0.247500
0.497320 0.614642 0.247500
0.453488 0.675902 0.247500
0.465367 0.764986 0.247500
0.506710 0.845498 0.247500
0.679181 0.902155 0.247500
1.000000 0.939607 0.247500
0.000000 0.045334 0.247500
0.399269 0.087586 0.247500
0.578089 0.157739 0.247500
0.613133 0.273320 0.247500
0.604510 0.384042 0.247500
0.556569 0.447159 0.247500
0.500000 0.500000 0.247500
0.443431 0.552841 0.247500
0.395490 0.615958 0.247500
0.386867 0.726680 0.247500
0.421911 0.842260 0.247500
0.600733 0.912414 0.247500
1.000000 0.954666 0.247500
0.000000 0.060393 0.247500
0.320820 0.097845 0.247500
0.493291 0.154502 0.247500
0.534633 0.235014 0.247500
0.546512 0.324098 0.247500
0.502680 0.385358 0.247500
0.447159 0.443431 0.247500
0.385358 0.497320 0.247500
0.341590 0.582451 0.247500
0.319881 0.692392 0.247500
0.363040 0.828611 0.247500
0.527972 0.922241 0.247500
1.000000 0.964708 0.247500
0.000000 0.080254 0.247500
0.237793 0.110995 0.247500
0.402477 0.161844 0.247500
0.442826 0.235513 0.247500
0.450158 0.298239 0.247500
0.417549 0.341590 0.247500
0.384042 0.395490 0.247500
0.324098 0.453488 0.247500
0.298239 0.549842 0.247500
0.256391 0.676633 0.247500
0.316405 0.819776 0.247500
0.469223 0.932368 0.247500
1.000000 0.971675 0.247500
0.000000 0.109886 0.247500
0.157998 0.143704 0.247500
0.250949 0.168607 0.247500
0.304673 0.202463 0.247500
0.323367 0.256391 0.247500
0.307608 0.319881 0.247500
0.273320 0.386867 0.247500
0.235014 0.465367 0.247500
0.235513 0.557174 0.247500
0.202463 0.695327 0.247500
0.273252 0.827851 0.247500
0.431060 0.945831 0.247500
1.000000 0.977000 0.247500
0.000000 0.147793 0.247500
0.077196 0.182733 0.247500
0.138026 0.229036 0.247500
0.172149 0.273252 0.247500
0.180224 0.316405 0.247500
0.171389 0.363040 0.247500
0.157740 0.421911 0.247500
0.154502 0.506710 0.247500
0.161844 0.597523 0.247500
0.168607 0.749051 0.247500
0.229036 0.861974 0.247500
0.410468 0.961414 0.247500
1.000000 0.982665 0.247500
0.000000 0.435934 0.247500
0.017905 0.429464 0.247500
0.038586 0.410468 0.247500
0.054169 0.431060 0.247500
0.067632 0.469223 0.247500
0.077759 0.527972 0.247500
0.087586 0.600733 0.247500
0.097845 0.679181 0.247500
0.110995 0.762208 0.247500
0.143704 0.842002 0.247500
0.182733 0.922805 0.247500
0.429463 0.982096 0.247500
1.000000 0.990672 0.247500
0.000000 1.000000 0.247500
0.009328 1.000000 0.247500
0.017335 1.000000 0.247500
0.023000 1.000000 0.247500
0.028325 1.000000 0.247500
0.035292 1.000000 0.247500
0.045334 1.000000 0.247500
0.060393 1.000000 0.247500
0.080254 1.000000 0.247500
0.109886 1.000000 0.247500
0.147793 1.000000 0.247500
0.435934 1.000000 0.247500
1.000000 1.000000 0.247500
0.000000 0.000000 0.330000
0.564066 0.000000 0.330000
0.852208 0.000000 0.330000
0.890114 0.000000 0.330000
0.919746 0.000000 0.330000
0.939607 0.000000 0.330000
0.954666 0.000000 0.330000
0.964708 0.000000 0.330000
0.971675 0.000000 0.330000
0.977000 0.000000 0.330000
0.982665 0.000000 0.330000
0.990672 0.000000 0.330000
1.000000 0.000000 0.330000
0.000000 0.009328 0.330000
0.570537 0.017905 0.330000
0.817267 0.077196 0.330000
0.856296 0.157999 0.330000
0.889005 0.237793 0.330000
0.902155 0.320820 0.330000
0.912414 0.399269 0.330000
0.922240 0.472029 0.330000
0.932368 0.530778 0.330000
0.945831 0.568941 0.330000
0.961414 0.589532 0.330000
0.982096 0.570537 0.330000
1.000000 0.564066 0.330000
0.000000 0.017335 0.330000
0.589532 0.038586 0.330000
0.770964 0.138026 0.330000
0.831392 0.250949 0.330000
0.838156 0.402477 0.330000
0.845498 0.493291 0.330000
0.842261 0.578089 0.330000
0.828611 0.636960 0.330000
0.819776 0.683595 0.330000
0.827851 0.726748 0.330000
0.861974 0.770964 0.330000
0.922805 0.817267 0.330000
1.000000 0.852208 0.330000
0.000000 0.023000 0.330000
0.568941 0.054169 0.330000
0.726748 0.172149 0.330000
0.797537 0.304673 0.330000
0.764487 0.442826 0.330000
0.764986 0.534633 0.330000
0.726680 0.613133 0.330000
0.692392 0.680119 0.330000
0.676633 0.743609 0.330000
0.695327 0.797537 0.330000
0.749051 0.831393 0.330000
0.842002 0.856296 0.330000
1.000000 0.890115 0.330000
0.000000 0.028325 0.330000
0.530778 0.067632 0.330000
0.683595 0.180224 0.330000
0.743609 0.323367 0.330000
0.701761 0.450158 0.330000
0.675902 0.546512 0.330000
0.615958 0.604510 0.330000
0.582451 0.658409 0.330000
0.549842 0.701761 0.330000
0.557174 0.764487 0.330000
0.597523 0.838156 0.330000