# vtk DataFile Version 2.0
Mesh for Fierro
ASCII 
DATASET UNSTRUCTURED_GRID

POINTS 845 float
0.000000 0.000000 0.000000
0.135191 0.000000 0.000000
0.262972 0.000000 0.000000
0.381918 0.000000 0.000000
0.486245 0.000000 0.000000
0.575129 0.000000 0.000000
0.653307 0.000000 0.000000
0.722295 0.000000 0.000000
0.784622 0.000000 0.000000
0.844241 0.000000 0.000000
0.897954 0.000000 0.000000
0.950599 0.000000 0.000000
1.000000 0.000000 0.000000
0.000000 0.049401 0.000000
0.133710 0.051053 0.000000
0.260307 0.055057 0.000000
0.378023 0.062107 0.000000
0.481801 0.070997 0.000000
0.569967 0.081349 0.000000
0.648075 0.092050 0.000000
0.717021 0.102720 0.000000
0.779769 0.113338 0.000000
0.839942 0.122398 0.000000
0.894957 0.129221 0.000000
0.948947 0.133710 0.000000
1.000000 0.135191 0.000000
0.000000 0.102046 0.000000
0.129221 0.105043 0.000000
0.251744 0.112643 0.000000
0.366217 0.125852 0.000000
0.468319 0.142540 0.000000
0.554709 0.161957 0.000000
0.632056 0.181975 0.000000
0.701576 0.202006 0.000000
0.766187 0.221935 0.000000
0.828572 0.238790 0.000000
0.887357 0.251744 0.000000
0.944943 0.260307 0.000000
1.000000 0.262972 0.000000
0.000000 0.155759 0.000000
0.122398 0.160058 0.000000
0.238790 0.171428 0.000000
0.348259 0.190241 0.000000
0.447179 0.213680 0.000000
0.530862 0.240962 0.000000
0.607108 0.269507 0.000000
0.677019 0.297496 0.000000
0.743349 0.325016 0.000000
0.809759 0.348259 0.000000
0.874148 0.366217 0.000000
0.937893 0.378023 0.000000
1.000000 0.381918 0.000000
0.000000 0.215378 0.000000
0.113338 0.220231 0.000000
0.221935 0.233813 0.000000
0.325016 0.256651 0.000000
0.420659 0.285676 0.000000
0.500451 0.319270 0.000000
0.575365 0.354322 0.000000
0.646036 0.388444 0.000000
0.714324 0.420659 0.000000
0.786320 0.447179 0.000000
0.857460 0.468319 0.000000
0.929003 0.481801 0.000000
1.000000 0.486245 0.000000
0.000000 0.277705 0.000000
0.102720 0.282979 0.000000
0.202006 0.298424 0.000000
0.297496 0.322981 0.000000
0.388444 0.353964 0.000000
0.465060 0.389570 0.000000
0.538787 0.427377 0.000000
0.610430 0.465060 0.000000
0.680730 0.500451 0.000000
0.759038 0.530862 0.000000
0.838043 0.554709 0.000000
0.918651 0.569967 0.000000
1.000000 0.575129 0.000000
0.000000 0.346693 0.000000
0.092050 0.351925 0.000000
0.181975 0.367944 0.000000
0.269507 0.392892 0.000000
0.354322 0.424635 0.000000
0.427377 0.461213 0.000000
0.500000 0.500000 0.000000
0.572623 0.538787 0.000000
0.645678 0.575365 0.000000
0.730493 0.607108 0.000000
0.818025 0.632056 0.000000
0.907951 0.648075 0.000000
1.000000 0.653307 0.000000
0.000000 0.424871 0.000000
0.081349 0.430033 0.000000
0.161957 0.445291 0.000000
0.240962 0.469138 0.000000
0.319270 0.499549 0.000000
0.389570 0.534940 0.000000
0.461213 0.572623 0.000000
0.534940 0.610430 0.000000
0.611556 0.646036 0.000000
0.702504 0.677019 0.000000
0.797994 0.701576 0.000000
0.897281 0.717021 0.000000
1.000000 0.722295 0.000000
0.000000 0.513755 0.000000
0.070997 0.518199 0.000000
0.142540 0.531681 0.000000
0.213680 0.552821 0.000000
0.285676 0.579341 0.000000
0.353964 0.611556 0.000000
0.424635 0.645678 0.000000
0.499549 0.680730 0.000000
0.579341 0.714324 0.000000
0.674984 0.743349 0.000000
0.778065 0.766187 0.000000
0.886662 0.779769 0.000000
1.000000 0.784622 0.000000
0.000000 0.618082 0.000000
0.062107 0.621977 0.000000
0.125852 0.633783 0.000000
0.190241 0.651741 0.000000
0.256651 0.674984 0.000000
0.322981 0.702504 0.000000
0.392892 0.730493 0.000000
0.469138 0.759038 0.000000
0.552821 0.786320 0.000000
0.651741 0.809759 0.000000
0.761210 0.828572 0.000000
0.877602 0.839942 0.000000
1.000000 0.844241 0.000000
0.000000 0.737028 0.000000
0.055057 0.739693 0.000000
0.112643 0.748256 0.000000
0.171428 0.761210 0.000000
0.233813 0.778065 0.000000
0.298424 0.797994 0.000000
0.367944 0.818025 0.000000
0.445291 0.838043 0.000000
0.531681 0.857460 0.000000
0.633783 0.874148 0.000000
0.748256 0.887357 0.000000
0.870780 0.894957 0.000000
1.000000 0.897954 0.000000
0.000000 0.864809 0.000000
0.051053 0.866291 0.000000
0.105043 0.870780 0.000000
0.160058 0.877602 0.000000
0.220231 0.886662 0.000000
0.282979 0.897281 0.000000
0.351925 0.907951 0.000000
0.430033 0.918651 0.000000
0.518199 0.929003 0.000000
0.621977 0.937893 0.000000
0.739693 0.944943 0.000000
0.866291 0.948947 0.000000
1.000000 0.950599 0.000000
0.000000 1.000000 0.000000
0.049401 1.000000 0.000000
0.102046 1.000000 0.000000
0.155759 1.000000 0.000000
0.215378 1.000000 0.000000
0.277705 1.000000 0.000000
0.346693 1.000000 0.000000
0.424871 1.000000 0.000000
0.513755 1.000000 0.000000
0.618082 1.000000 0.000000
0.737028 1.000000 0.000000
0.864809 1.000000 0.000000
1.000000 1.000000 0.000000
0.000000 0.000000 0.082500
0.135191 0.000000 0.082500
0.262972 0.000000 0.082500
0.381918 0.000000 0.082500
0.486245 0.000000 0.082500
0.575129 0.000000 0.082500
0.653307 0.000000 0.082500
0.722295 0.000000 0.082500
0.784622 0.000000 0.082500
0.844241 0.000000 0.082500
0.897954 0.000000 0.082500
0.950599 0.000000 0.082500
1.000000 0.000000 0.082500
0.000000 0.049401 0.082500
0.133710 0.051053 0.082500
0.260307 0.055057 0.082500
0.378023 0.062107 0.082500
0.481801 0.070997 0.082500
0.569967 0.081349 0.082500
0.648075 0.092050 0.082500
0.717021 0.102720 0.082500
0.779769 0.113338 0.082500
0.839942 0.122398 0.082500
0.894957 0.129221 0.082500
0.948947 0.133710 0.082500
1.000000 0.135191 0.082500
0.000000 0.102046 0.082500
0.129221 0.105043 0.082500
0.251744 0.112643 0.082500
0.366217 0.125852 0.082500
0.468319 0.142540 0.082500
0.554709 0.161957 0.082500
0.632056 0.181975 0.082500
0.701576 0.202006 0.082500
0.766187 0.221935 0.082500
0.828572 0.238790 0.082500
0.887357 0.251744 0.082500
0.944943 0.260307 0.082500
1.000000 0.262972 0.082500
0.000000 0.155759 0.082500
0.122398 0.160058 0.082500
0.238790 0.171428 0.082500
0.348259 0.190241 0.082500
0.447179 0.213680 0.082500
0.530862 0.240962 0.082500
0.607108 0.269507 0.082500
0.677019 0.297496 0.082500
0.743349 0.325016 0.082500
0.809759 0.348259 0.082500
0.874148 0.366217 0.082500
0.937893 0.378023 0.082500
1.000000 0.381918 0.082500
0.000000 0.215378 0.082500
0.113338 0.220231 0.082500
0.221935 0.233813 0.082500
0.325016 0.256651 0.082500
0.420659 0.285676 0.082500
0.500451 0.319270 0.082500
0.575365 0.354322 0.082500
0.646036 0.388444 0.082500
0.714324 0.420659 0.082500
0.786320 0.447179 0.082500
0.857460 0.468319 0.082500
0.929003 0.481801 0.082500
1.000000 0.486245 0.082500
0.000000 0.277705 0.082500
0.102720 0.282979 0.082500
0.202006 0.298424 0.082500
0.297496 0.322981 0.082500
0.388444 0.353964 0.082500
0.465060 0.389570 0.082500
0.538787 0.427377 0.082500
0.610430 0.465060 0.082500
0.680730 0.500451 0.082500
0.759038 0.530862 0.082500
0.838043 0.554709 0.082500
0.918651 0.569967 0.082500
1.000000 0.575129 0.082500
0.000000 0.346693 0.082500
0.092050 0.351925 0.082500
0.181975 0.367944 0.082500
0.269507 0.392892 0.082500
0.354322 0.424635 0.082500
0.427377 0.461213 0.082500
0.500000 0.500000 0.082500
0.572623 0.538787 0.082500
0.645678 0.575365 0.082500
0.730493 0.607108 0.082500
0.818025 0.632056 0.082500
0.907951 0.648075 0.082500
1.000000 0.653307 0.082500
0.000000 0.424871 0.082500
0.081349 0.430033 0.082500
0.161957 0.445291 0.082500
0.240962 0.469138 0.082500
0.319270 0.499549 0.082500
0.389570 0.534940 0.082500
0.461213 0.572623 0.082500
0.534940 0.610430 0.082500
0.611556 0.646036 0.082500
0.702504 0.677019 0.082500
0.797994 0.701576 0.082500
0.897281 0.717021 0.082500
1.000000 0.722295 0.082500
0.000000 0.513755 0.082500
0.070997 0.518199 0.082500
0.142540 0.531681 0.082500
0.213680 0.552821 0.082500
0.285676 0.579341 0.082500
0.353964 0.611556 0.082500
0.424635 0.645678 0.082500
0.499549 0.680730 0.082500
0.579341 0.714324 0.082500
0.674984 0.743349 0.082500
0.778065 0.766187 0.082500
0.886662 0.779769 0.082500
1.000000 0.784622 0.082500
0.000000 0.618082 0.082500
0.062107 0.621977 0.082500
0.125852 0.633783 0.082500
0.190241 0.651741 0.082500
0.256651 0.674984 0.082500
0.322981 0.702504 0.082500
0.392892 0.730493 0.082500
0.469138 0.759038 0.082500
0.552821 0.786320 0.082500
0.651741 0.809759 0.082500
0.761210 0.828572 0.082500
0.877602 0.839942 0.082500
1.000000 0.844241 0.082500
0.000000 0.737028 0.082500
0.055057 0.739693 0.082500
0.112643 0.748256 0.082500
0.171428 0.761210 0.082500
0.233813 0.778065 0.082500
0.298424 0.797994 0.082500
0.367944 0.818025 0.082500
0.445291 0.838043 0.082500
0.531681 0.857460 0.082500
0.633783 0.874148 0.082500
0.748256 0.887357 0.082500
0.870780 0.894957 0.082500
1.000000 0.897954 0.082500
0.000000 0.864809 0.082500
0.051053 0.866291 0.082500
0.105043 0.870780 0.082500
0.160058 0.877602 0.082500
0.220231 0.886662 0.082500
0.282979 0.897281 0.082500
0.351925 0.907951 0.082500
0.430033 0.918651 0.082500
0.518199 0.929003 0.082500
0.621977 0.937893 0.082500
0.739693 0.944943 0.082500
0.866291 0.948947 0.082500
1.000000 0.950599 0.082500
0.000000 1.000000 0.082500
0.049401 1.000000 0.082500
0.102046 1.000000 0.082500
0.155759 1.000000 0.082500
0.215378 1.000000 0.082500
0.277705 1.000000 0.082500
0.346693 1.000000 0.082500
0.424871 1.000000 0.082500
0.513755 1.000000 0.082500
0.618082 1.000000 0.082500
0.737028 1.000000 0.082500
0.864809 1.000000 0.082500
1.000000 1.000000 0.082500
0.000000 0.000000 0.165000
0.135191 0.000000 0.165000
0.262972 0.000000 0.165000
0.381918 0.000000 0.165000
0.486245 0.000000 0.165000
0.575129 0.000000 0.165000
0.653307 0.000000 0.165000
0.722295 0.000000 0.165000
0.784622 0.000000 0.165000
0.844241 0.000000 0.165000
0.897954 0.000000 0.165000
0.950599 0.000000 0.165000
1.000000 0.000000 0.165000
0.000000 0.049401 0.165000
0.133710 0.051053 0.165000
0.260307 0.055057 0.165000
0.378023 0.062107 0.165000
0.481801 0.070997 0.165000
0.569967 0.081349 0.165000
0.648075 0.092050 0.165000
0.717021 0.102720 0.165000
0.779769 0.113338 0.165000
0.839942 0.122398 0.165000
0.894957 0.129221 0.165000
0.948947 0.133710 0.165000
1.000000 0.135191 0.165000
0.000000 0.102046 0.165000
0.129221 0.105043 0.165000
[...]
POINT_DATA 845 
VECTORS pos float 
0.000000 0.000000 0.000000
0.135191 0.000000 0.000000
0.262972 0.000000 0.000000
0.381918 0.000000 0.000000
0.486245 0.000000 0.000000
0.575129 0.000000 0.000000
0.653307 0.000000 0.000000
0.722295 0.000000 0.000000
0.784622 0.000000 0.000000
0.844241 0.000000 0.000000
0.897954 0.000000 0.000000
0.950599 0.000000 0.000000
1.000000 0.000000 0.000000
0.000000 0.049401 0.000000
0.133710 0.051053 0.000000
0.260307 0.055057 0.000000
0.378023 0.062107 0.000000
0.481801 0.070997 0.000000
0.569967 0.081349 0.000000
0.648075 0.092050 0.000000
0.717021 0.102720 0.000000
0.779769 0.113338 0.000000
0.839942 0.122398 0.000000
0.894957 0.129221 0.000000
0.948947 0.133710 0.000000
1.000000 0.135191 0.000000
0.000000 0.102046 0.000000
0.129221 0.105043 0.000000
0.251744 0.112643 0.000000
0.366217 0.125852 0.000000
0.468319 0.142540 0.000000
0.554709 0.161957 0.000000
0.632056 0.181975 0.000000
0.701576 0.202006 0.000000
0.766187 0.221935 0.000000
0.828572 0.238790 0.000000
0.887357 0.251744 0.000000
0.944943 0.260307 0.000000
1.000000 0.262972 0.000000
0.000000 0.155759 0.000000
0.122398 0.160058 0.000000
0.238790 0.171428 0.000000
0.348259 0.190241 0.000000
0.447179 0.213680 0.000000
0.530862 0.240962 0.000000
0.607108 0.269507 0.000000
0.677019 0.297496 0.000000
0.743349 0.325016 0.000000
0.809759 0.348259 0.000000
0.874148 0.366217 0.000000
0.937893 0.378023 0.000000
1.000000 0.381918 0.000000
0.000000 0.215378 0.000000
0.113338 0.220231 0.000000
0.221935 0.233813 0.000000
0.325016 0.256651 0.000000
0.420659 0.285676 0.000000
0.500451 0.319270 0.000000
0.575365 0.354322 0.000000
0.646036 0.388444 0.000000
0.714324 0.420659 0.000000
0.786320 0.447179 0.000000
0.857460 0.468319 0.000000
0.929003 0.481801 0.000000
1.000000 0.486245 0.000000
0.000000 0.277705 0.000000
0.102720 0.282979 0.000000
0.202006 0.298424 0.000000
0.297496 0.322981 0.000000
0.388444 0.353964 0.000000
0.465060 0.389570 0.000000
0.538787 0.427377 0.000000
0.610430 0.465060 0.000000
0.680730 0.500451 0.000000
0.759038 0.530862 0.000000
0.838043 0.554709 0.000000
0.918651 0.569967 0.000000
1.000000 0.575129 0.000000
0.000000 0.346693 0.000000
0.092050 0.351925 0.000000
0.181975 0.367944 0.000000
0.269507 0.392892 0.000000
0.354322 0.424635 0.000000
0.427377 0.461213 0.000000
0.500000 0.500000 0.000000
0.572623 0.538787 0.000000
0.645678 0.575365 0.000000
0.730493 0.607108 0.000000
0.818025 0.632056 0.000000
0.907951 0.648075 0.000000
1.000000 0.653307 0.000000
0.000000 0.424871 0.000000
0.081349 0.430033 0.000000
0.161957 0.445291 0.000000
0.240962 0.469138 0.000000
0.319270 0.499549 0.000000
0.389570 0.534940 0.000000
0.461213 0.572623 0.000000
0.534940 0.610430 0.000000
0.611556 0.646036 0.000000
0.702504 0.677019 0.000000
0.797994 0.701576 0.000000
0.897281 0.717021 0.000000
1.000000 0.722295 0.000000
0.000000 0.513755 0.000000
0.070997 0.518199 0.000000
0.142540 0.531681 0.000000
0.213680 0.552821 0.000000
0.285676 0.579341 0.000000
0.353964 0.611556 0.000000
0.424635 0.645678 0.000000
0.499549 0.680730 0.000000
0.579341 0.714324 0.000000
0.674984 0.743349 0.000000
0.778065 0.766187 0.000000
0.886662 0.779769 0.000000
1.000000 0.784622 0.000000
0.000000 0.618082 0.000000
0.062107 0.621977 0.000000
0.125852 0.633783 0.000000
0.190241 0.651741 0.000000
0.256651 0.674984 0.000000
0.322981 0.702504 0.000000
0.392892 0.730493 0.000000
0.469138 0.759038 0.000000
0.552821 0.786320 0.000000
0.651741 0.809759 0.000000
0.761210 0.828572 0.000000
0.877602 0.839942 0.000000
1.000000 0.844241 0.000000
0.000000 0.737028 0.000000
0.055057 0.739693 0.000000
0.112643 0.748256 0.000000
0.171428 0.761210 0.000000
0.233813 0.778065 0.000000
0.298424 0.797994 0.000000
0.367944 0.818025 0.000000
0.445291 0.838043 0.000000
0.531681 0.857460 0.000000
0.633783 0.874148 0.000000
0.748256 0.887357 0.000000
0.870780 0.894957 0.000000
1.000000 0.897954 0.000000
0.000000 0.864809 0.000000
0.051053 0.866291 0.000000
0.105043 0.870780 0.000000
0.160058 0.877602 0.000000
0.220231 0.886662 0.000000
0.282979 0.897281 0.000000
0.351925 0.907951 0.000000
0.430033 0.918651 0.000000
0.518199 0.929003 0.000000
0.621977 0.937893 0.000000
0.739693 0.944943 0.000000
0.866291 0.948947 0.000000
1.000000 0.950599 0.000000
0.000000 1.000000 0.000000
0.049401 1.000000 0.000000
0.102046 1.000000 0.000000
0.155759 1.000000 0.000000
0.215378 1.000000 0.000000
0.277705 1.000000 0.000000
0.346693 1.000000 0.000000
0.424871 1.000000 0.000000
0.513755 1.000000 0.000000
0.618082 1.000000 0.000000
0.737028 1.000000 0.000000
0.864809 1.000000 0.000000
1.000000 1.000000 0.000000
0.000000 0.000000 0.082500
0.135191 0.000000 0.082500
0.262972 0.000000 0.082500
0.381918 0.000000 0.082500
0.486245 0.000000 0.082500
0.575129 0.000000 0.082500
0.653307 0.000000 0.082500
0.722295 0.000000 0.082500
0.784622 0.000000 0.082500
0.844241 0.000000 0.082500
0.897954 0.000000 0.082500
0.950599 0.000000 0.082500
1.000000 0.000000 0.082500
0.000000 0.049401 0.082500
0.133710 0.051053 0.082500
0.260307 0.055057 0.082500
0.378023 0.062107 0.082500
0.481801 0.070997 0.082500
0.569967 0.081349 0.082500
0.648075 0.092050 0.082500
0.717021 0.102720 0.082500
0.779769 0.113338 0.082500
0.839942 0.122398 0.082500
0.894957 0.129221 0.082500
0.948947 0.133710 0.082500
1.000000 0.135191 0.082500
0.000000 0.102046 0.082500
0.129221 0.105043 0.082500
0.251744 0.112643 0.082500
0.366217 0.125852 0.082500
0.468319 0.142540 0.082500
0.554709 0.161957 0.082500
0.632056 0.181975 0.082500
0.701576 0.202006 0.082500
0.766187 0.221935 0.082500
0.828572 0.238790 0.082500
0.887357 0.251744 0.082500
0.944943 0.260307 0.082500
1.000000 0.262972 0.082500
0.000000 0.155759 0.082500
0.122398 0.160058 0.082500
0.238790 0.171428 0.082500
0.348259 0.190241 0.082500
0.447179 0.213680 0.082500
0.530862 0.240962 0.082500
0.607108 0.269507 0.082500
0.677019 0.297496 0.082500
0.743349 0.325016 0.082500
0.809759 0.348259 0.082500
0.874148 0.366217 0.082500
0.937893 0.378023 0.082500
1.000000 0.381918 0.082500
0.000000 0.215378 0.082500
0.113338 0.220231 0.082500
0.221935 0.233813 0.082500
0.325016 0.256651 0.082500
0.420659 0.285676 0.082500
0.500451 0.319270 0.082500
0.575365 0.354322 0.082500
0.646036 0.388444 0.082500
0.714324 0.420659 0.082500
0.786320 0.447179 0.082500
0.857460 0.468319 0.082500
0.929003 0.481801 0.082500
1.000000 0.486245 0.082500
0.000000 0.277705 0.082500
0.102720 0.282979 0.082500
0.202006 0.298424 0.082500
0.297496 0.322981 0.082500
0.388444 0.353964 0.082500
0.465060 0.389570 0.082500
0.538787 0.427377 0.082500
0.610430 0.465060 0.082500
0.680730 0.500451 0.082500
0.759038 0.530862 0.082500
0.838043 0.554709 0.082500
0.918651 0.569967 0.082500
1.000000 0.575129 0.082500
0.000000 0.346693 0.082500
0.092050 0.351925 0.082500
0.181975 0.367944 0.082500
0.269507 0.392892 0.082500
0.354322 0.424635 0.082500
0.427377 0.461213 0.082500
0.500000 0.500000 0.082500
0.572623 0.538787 0.082500
0.645678 0.575365 0.082500
0.730493 0.607108 0.082500
0.818025 0.632056 0.082500
0.907951 0.648075 0.082500
1.000000 0.653307 0.082500
0.000000 0.424871 0.082500
0.081349 0.430033 0.082500
0.161957 0.445291 0.082500
0.240962 0.469138 0.082500
0.319270 0.499549 0.082500
0.389570 0.534940 0.082500
0.461213 0.572623 0.082500
0.534940 0.610430 0.082500
0.611556 0.646036 0.082500
0.702504 0.677019 0.082500
0.797994 0.701576 0.082500
0.897281 0.717021 0.082500
1.000000 0.722295 0.082500
0.000000 0.513755 0.082500
0.070997 0.518199 0.082500
0.142540 0.531681 0.082500
0.213680 0.552821 0.082500
0.285676 0.579341 0.082500
0.353964 0.611556 0.082500
0.424635 0.645678 0.082500
0.499549 0.680730 0.082500
0.579341 0.714324 0.082500
0.674984 0.743349 0.082500
0.778065 0.766187 0.082500
0.886662 0.779769 0.082500
1.000000 0.784622 0.082500
0.000000 0.618082 0.082500
0.062107 0.621977 0.082500
0.125852 0.633783 0.082500
0.190241 0.651741 0.082500
0.256651 0.674984 0.082500
0.322981 0.702504 0.082500
0.392892 0.730493 0.082500
0.469138 0.759038 0.082500
0.552821 0.786320 0.082500
0.651741 0.809759 0.082500
0.761210 0.828572 0.082500
0.877602 0.839942 0.082500
1.000000 0.844241 0.082500
0.000000 0.737028 0.082500
0.055057 0.739693 0.082500
0.112643 0.748256 0.082500
0.171428 0.761210 0.082500
0.233813 0.778065 0.082500
0.298424 0.797994 0.082500
0.367944 0.818025 0.082500
0.445291 0.838043 0.082500
0.531681 0.857460 0.082500
0.633783 0.874148 0.082500
0.748256 0.887357 0.082500
0.870780 0.894957 0.082500
1.000000 0.897954 0.082500
0.000000 0.864809 0.082500
0.051053 0.866291 0.082500
0.105043 0.870780 0.082500
0.160058 0.877602 0.082500
0.220231 0.886662 0.082500
0.282979 0.897281 0.082500
0.351925 0.907951 0.082500
0.430033 0.918651 0.082500
0.518199 0.929003 0.082500
0.621977 0.937893 0.082500
0.739693 0.944943 0.082500
0.866291 0.948947 0.082500
1.000000 0.950599 0.082500
0.000000 1.000000 0.082500
0.049401 1.000000 0.082500
0.102046 1.000000 0.082500
0.155759 1.000000 0.082500
0.215378 1.000000 0.082500
0.277705 1.000000 0.082500
0.346693 1.000000 0.082500
0.424871 1.000000 0.082500
0.513755 1.000000 0.082500
0.618082 1.000000 0.082500
0.737028 1.000000 0.082500
0.864809 1.000000 0.082500
1.000000 1.000000 0.082500
0.000000 0.000000 0.165000
0.135191 0.000000 0.165000
0.262972 0.000000 0.165000
0.381918 0.000000 0.165000
0.486245 0.000000 0.165000
0.575129 0.000000 0.165000
0.653307 0.000000 0.165000
0.722295 0.000000 0.165000
0.784622 0.000000 0.165000
0.844241 0.000000 0.165000
0.897954 0.000000 0.165000
0.950599 0.000000 0.165000
1.000000 0.000000 0.165000
0.000000 0.049401 0.165000
0.133710 0.051053 0.165000
0.260307 0.055057 0.165000
0.378023 0.062107 0.165000
0.481801 0.070997 0.165000
0.569967 0.081349 0.165000
0.648075 0.092050 0.165000
0.717021 0.102720 0.165000
0.779769 0.113338 0.165000
0.839942 0.122398 0.165000
0.894957 0.129221 0.165000
0.948947 0.133710 0.165000
1.000000 0.135191 0.165000
0.000000 0.102046 0.165000
0.129221 0.105043 0.165000
0.251744 0.112643 0.165000
0.366217 0.125852 0.165000
0.468319 0.142540 0.165000
0.554709 0.161957 0.165000
0.632056 0.181975 0.165000
0.701576 0.202006 0.165000
0.766187 0.221935 0.165000
0.828572 0.238790 0.165000
0.887357 0.251744 0.165000
0.944943 0.260307 0.165000
1.000000 0.262972 0.165000
0.000000 0.155759 0.165000
0.122398 0.160058 0.165000
0.238790 0.171428 0.165000
0.348259 0.190241 0.165000
0.447179 0.213680 0.165000
0.530862 0.240962 0.165000
0.607108 0.269507 0.165000
0.677019 0.297496 0.165000
0.743349 0.325016 0.165000
0.809759 0.348259 0.165000
0.874148 0.366217 0.165000
0.937893 0.378023 0.165000
1.000000 0.381918 0.165000
0.000000 0.215378 0.165000
0.113338 0.220231 0.165000
0.221935 0.233813 0.165000
0.325016 0.256651 0.165000
0.420659 0.285676 0.165000
0.500451 0.319270 0.165000
0.575365 0.354322 0.165000
0.646036 0.388444 0.165000
0.714324 0.420659 0.165000
0.786320 0.447179 0.165000
0.857460 0.468319 0.165000
0.929003 0.481801 0.165000
1.000000 0.486245 0.165000
0.000000 0.277705 0.165000
0.102720 0.282979 0.165000
0.202006 0.298424 0.165000
0.297496 0.322981 0.165000
0.388444 0.353964 0.165000
0.465060 0.389570 0.165000
0.538787 0.427377 0.165000
0.610430 0.465060 0.165000
0.680730 0.500451 0.165000
0.759038 0.530862 0.165000
0.838043 0.554709 0.165000
0.918651 0.569967 0.165000
1.000000 0.575129 0.165000
0.000000 0.346693 0.165000
0.092050 0.351925 0.165000
0.181975 0.367944 0.165000
0.269507 0.392892 0.165000
0.354322 0.424635 0.165000
0.427377 0.461213 0.165000
0.500000 0.500000 0.165000
0.572623 0.538787 0.165000
0.645678 0.575365 0.165000
0.730493 0.607108 0.165000
0.818025 0.632056 0.165000
0.907951 0.648075 0.165000
1.000000 0.653307 0.165000
0.000000 0.424871 0.165000
0.081349 0.430033 0.165000
0.161957 0.445291 0.165000
0.240962 0.469138 0.165000
0.319270 0.499549 0.165000
0.389570 0.534940 0.165000
0.461213 0.572623 0.165000
0.534940 0.610430 0.165000
0.611556 0.646036 0.165000
0.702504 0.677019 0.165000
0.797994 0.701576 0.165000
0.897281 0.717021 0.165000
1.000000 0.722295 0.165000
0.000000 0.513755 0.165000
0.070997 0.518199 0.165000
0.142540 0.531681 0.165000
0.213680 0.552821 0.165000
0.285676 0.579341 0.165000
0.353964 0.611556 0.165000
0.424635 0.645678 0.165000
0.499549 0.680730 0.165000
0.579341 0.714324 0.165000
0.674984 0.743349 0.165000
0.778065 0.766187 0.165000
0.886662 0.779769 0.165000
1.000000 0.784622 0.165000
0.000000 0.618082 0.165000
0.062107 0.621977 0.165000
0.125852 0.633783 0.165000
0.190241 0.651741 0.165000
0.256651 0.674984 0.165000
0.322981 0.702504 0.165000
0.392892 0.730493 0.165000
0.469138 0.759038 0.165000
0.552821 0.786320 0.165000
0.651741 0.809759 0.165000
0.761210 0.828572 0.165000
0.877602 0.839942 0.165000
1.000000 0.844241 0.165000
0.000000 0.737028 0.165000
0.055057 0.739693 0.165000
0.112643 0.748256 0.165000
0.171428 0.761210 0.165000
0.233813 0.778065 0.165000
0.298424 0.797994 0.165000
0.367944 0.818025 0.165000
0.445291 0.838043 0.165000
0.531681 0.857460 0.165000
0.633783 0.874148 0.165000
0.748256 0.887357 0.165000
0.870780 0.894957 0.165000
1.000000 0.897954 0.165000
0.000000 0.864809 0.165000
0.051053 0.866291 0.165000
0.105043 0.870780 0.165000
0.160058 0.877602 0.165000
0.220231 0.886662 0.165000
0.282979 0.897281 0.165000
0.351925 0.907951 0.165000
0.430033 0.918651 0.165000
0.518199 0.929003 0.165000
0.621977 0.937893 0.165000
0.739693 0.944943 0.165000
0.866291 0.948947 0.165000
1.000000 0.950599 0.165000
0.000000 1.000000 0.165000
0.049401 1.000000 0.165000
0.102046 1.000000 0.165000
0.155759 1.000000 0.165000
0.215378 1.000000 0.165000
0.277705 1.000000 0.165000
0.346693 1.000000 0.165000
0.424871 1.000000 0.165000
0.513755 1.000000 0.165000
0.618082 1.000000 0.165000
0.737028 1.000000 0.165000
0.864809 1.000000 0.165000
1.000000 1.000000 0.165000
0.000000 0.000000 0.247500
0.135191 0.000000 0.247500
0.262972 0.000000 0.247500
0.381918 0.000000 0.247500
0.486245 0.000000 0.247500
0.575129 0.000000 0.247500
0.653307 0.000000 0.247500
0.722295 0.000000 0.247500
0.784622 0.000000 0.247500
0.844241 0.000000 0.247500
0.897954 0.000000 0.247500
0.950599 0.000000 0.247500
1.000000 0.000000 0.247500
0.000000 0.049401 0.247500
0.133710 0.051053 0.247500
0.260307 0.055057 0.247500
0.378023 0.062107 0.247500
0.481801 0.070997 0.247500
0.569967 0.081349 0.247500
0.648075 0.092050 0.247500
0.717021 0.102720 0.247500
0.779769 0.113338 0.247500
0.839942 0.122398 0.247500
0.894957 0.129221 0.247500
0.948947 0.133710 0.247500
1.000000 0.135191 0.247500
0.000000 0.102046 0.247500
0.129221 0.105043 0.247500
0.251744 0.112643 0.247500
0.366217 0.125852 0.247500
0.468319 0.142540 0.247500
0.554709 0.161957 0.247500
0.632056 0.181975 0.247500
0.701576 0.202006 0.247500
0.766187 0.221935 0.247500
0.828572 0.238790 0.247500
0.887357 0.251744 0.247500
0.944943 0.260307 0.247500
1.000000 0.262972 0.247500
0.000000 0.155759 0.247500
0.122398 0.160058 0.247500
0.238790 0.171428 0.247500
0.348259 0.190241 0.247500
0.447179 0.213680 0.247500
0.530862 0.240962 0.247500
0.607108 0.269507 0.247500
0.677019 0.297496 0.247500
0.743349 0.325016 0.247500
0.809759 0.348259 0.247500
0.874148 0.366217 0.247500
0.937893 0.378023 0.247500
1.000000 0.381918 0.247500
0.000000 0.215378 0.247500
0.113338 0.220231 0.247500
0.221935 0.233813 0.247500
0.325016 0.256651 0.247500
0.420659 0.285676 0.247500
0.500451 0.319270 0.247500
0.575365 0.354322 0.247500
0.646036 0.388444 0.247500
0.714324 0.420659 0.247500
0.786320 0.447179 0.247500
0.857460 0.468319 0.247500
0.929003 0.481801 0.247500
1.000000 0.486245 0.247500
0.000000 0.277705 0.247500
0.102720 0.282979 0.247500
0.202006 0.298424 0.247500
0.297496 0.322981 0.247500
0.388444 0.353964 0.247500
0.465060 0.389570 0.247500
0.538787 0.427377 0.247500
0.610430 0.465060 0.247500
0.680730 0.500451 0.247500
0.759038 0.530862 0.247500
0.838043 0.554709 0.247500
0.918651 0.569967 0.247500
1.000000 0.575129 0.247500
0.000000 0.346693 0.247500
0.092050 0.351925 0.247500
0.181975 0.367944 0.247500
0.269507 0.392892 0.247500
0.354322 0.424635 0.247500
0.427377 0.461213 0.247500
0.500000 0.500000 0.247500
0.572623 0.538787 0.247500
0.645678 0.575365 0.247500
0.730493 0.607108 0.247500
0.818025 0.632056 0.247500
0.907951 0.648075 0.247500
1.000000 0.653307 0.247500
0.000000 0.424871 0.247500
0.081349 0.430033 0.247500
0.161957 0.445291 0.247500
0.240962 0.469138 0.247500
0.319270 0.499549 0.247500
0.389570 0.534940 0.247500
0.461213 0.572623 0.247500
0.534940 0.610430 0.247500
0.611556 0.646036 0.247500
0.702504 0.677019 0.247500
0.797994 0.701576 0.247500
0.897281 0.717021 0.247500
1.000000 0.722295 0.247500
0.000000 0.513755 0.247500
0.070997 0.518199 0.247500
0.142540 0.531681 0.247500
0.213680 0.552821 0.247500
0.285676 0.579341 0.247500
0.353964 0.611556 0.247500
0.424635 0.645678 0.247500
0.499549 0.680730 0.247500
0.579341 0.714324 0.247500
0.674984 0.743349 0.247500
0.778065 0.766187 0.247500
0.886662 0.779769 0.247500
1.000000 0.784622 0.247500
0.000000 0.618082 0.247500
0.062107 0.621977 0.247500
0.125852 0.633783 0.247500
0.190241 0.651741 0.247500
0.256651 0.674984 0.247500
0.322981 0.702504 0.247500
0.392892 0.730493 0.247500
0.469138 0.759038 0.247500
0.552821 0.786320 0.247500
0.651741 0.809759 0.247500
0.761210 0.828572 0.247500
0.877602 0.839942 0.247500
1.000000 0.844241 0.247500
0.000000 0.737028 0.247500
0.055057 0.739693 0.247500
0.112643 0.748256 0.247500
0.171428 0.761210 0.247500
0.233813 0.778065 0.247500
0.298424 0.797994 0.247500
0.367944 0.818025 0.247500
0.445291 0.838043 0.247500
0.531681 0.857460 0.247500
0.633783 0.874148 0.247500
0.748256 0.887357 0.247500
0.870780 0.894957 0.247500
1.000000 0.897954 0.247500
0.000000 0.864809 0.247500
0.051053 0.866291 0.247500
0.105043 0.870780 0.247500
0.160058 0.877602 0.247500
0.220231 0.886662 0.247500
0.282979 0.897281 0.247500
0.351925 0.907951 0.247500
0.430033 0.918651 0.247500
0.518199 0.929003 0.247500
0.621977 0.937893 0.247500
0.739693 0.944943 0.247500
0.866291 0.948947 0.247500
1.000000 0.950599 0.247500
0.000000 1.000000 0.247500
0.049401 1.000000 0.247500
0.102046 1.000000 0.247500
0.155759 1.000000 0.247500
0.215378 1.000000 0.247500
0.277705 1.000000 0.247500
0.346693 1.000000 0.247500
0.424871 1.000000 0.247500
0.513755 1.000000 0.247500
0.618082 1.000000 0.247500
0.737028 1.000000 0.247500
0.864809 1.000000 0.247500
1.000000 1.000000 0.247500
0.000000 0.000000 0.330000
0.135191 0.000000 0.330000
0.262972 0.000000 0.330000
0.381918 0.000000 0.330000
0.486245 0.000000 0.330000
0.575129 0.000000 0.330000
0.653307 0.000000 0.330000
0.722295 0.000000 0.330000
0.784622 0.000000 0.330000
0.844241 0.000000 0.330000
0.897954 0.000000 0.330000
0.950599 0.000000 0.330000
1.000000 0.000000 0.330000
0.000000 0.049401 0.330000
0.133710 0.051053 0.330000
0.260307 0.055057 0.330000
0.378023 0.062107 0.330000
0.481801 0.070997 0.330000
0.569967 0.081349 0.330000
0.648075 0.092050 0.330000
0.717021 0.102720 0.330000
0.779769 0.113338 0.330000
0.839942 0.122398 0.330000
0.894957 0.129221 0.330000
0.948947 0.133710 0.330000
1.000000 0.135191 0.330000
0.000000 0.102046 0.330000
0.129221 0.105043 0.330000
0.251744 0.112643 0.330000
0.366217 0.125852 0.330000
0.468319 0.142540 0.330000
0.554709 0.161957 0.330000
0.632056 0.181975 0.330000
0.701576 0.202006 0.330000
0.766187 0.221935 0.330000
0.828572 0.238790 0.330000
0.887357 0.251744 0.330000
0.944943 0.260307 0.330000
1.000000 0.262972 0.330000
0.000000 0.155759 0.330000
0.122398 0.160058 0.330000
0.238790 0.171428 0.330000
0.348259 0.190241 0.330000
0.447179 0.213680 0.330000
0.530862 0.240962 0.330000
0.607108 0.269507 0.330000
0.677019 0.297496 0.330000
0.743349 0.325016 0.330000
0.809759 0.348259 0.330000
0.874148 0.366217 0.330000
0.937893 0.378023 0.330000
1.000000 0.381918 0.330000
0.000000 0.215378 0.330000
0.113338 0.220231 0.330000
0.221935 0.233813 0.330000
0.325016 0.256651 0.330000
0.420659 0.285676 0.330000
0.500451 0.319270 0.330000
0.575365 0.354322 0.330000
0.646036 0.388444 0.330000
0.714324 0.420659 0.330000
0.786320 0.447179 0.330000
0.857460 0.468319 0.330000