# vtk DataFile Version 2.0
Mesh for Fierro
ASCII 
DATASET UNSTRUCTURED_GRID

POINTS 845 float
0.000000 0.000000 0.000000
0.521039 0.000000 0.000000
0.766251 0.000000 0.000000
0.833115 0.000000 0.000000
0.882652 0.000000 0.000000
0.909636 0.000000 0.000000
0.930560 0.000000 0.000000
0.946874 0.000000 0.000000
0.959506 0.000000 0.000000
0.969195 0.000000 0.000000
0.978218 0.000000 0.000000
0.988695 0.000000 0.000000
1.000000 0.000000 0.000000
0.000000 0.011305 0.000000
0.518216 0.019236 0.000000
0.746323 0.063991 0.000000
0.816785 0.111449 0.000000
0.861382 0.183964 0.000000
0.884436 0.250457 0.000000
0.902066 0.318592 0.000000
0.916798 0.384865 0.000000
0.930029 0.441676 0.000000
0.945400 0.480802 0.000000
0.962008 0.506591 0.000000
0.980764 0.518216 0.000000
1.000000 0.521039 0.000000
0.000000 0.021782 0.000000
0.506591 0.037992 0.000000
0.714637 0.114662 0.000000
0.793971 0.198369 0.000000
0.818359 0.319682 0.000000
0.838102 0.408640 0.000000
0.842278 0.497847 0.000000
0.841297 0.567921 0.000000
0.840442 0.626688 0.000000
0.855640 0.674232 0.000000
0.885338 0.714637 0.000000
0.936010 0.746323 0.000000
1.000000 0.766251 0.000000
0.000000 0.030805 0.000000
0.480802 0.054600 0.000000
0.674232 0.144360 0.000000
0.751026 0.249287 0.000000
0.754646 0.375415 0.000000
0.764132 0.469989 0.000000
0.743689 0.557297 0.000000
0.729379 0.630188 0.000000
0.722970 0.696021 0.000000
0.750713 0.751026 0.000000
0.801631 0.793971 0.000000
0.888551 0.816786 0.000000
1.000000 0.833115 0.000000
0.000000 0.040494 0.000000
0.441676 0.069971 0.000000
0.626688 0.159558 0.000000
0.696021 0.277030 0.000000
0.690128 0.398527 0.000000
0.681446 0.495486 0.000000
0.641761 0.570670 0.000000
0.621379 0.635788 0.000000
0.601473 0.690128 0.000000
0.624585 0.754646 0.000000
0.680318 0.818359 0.000000
0.816037 0.861382 0.000000
1.000000 0.882652 0.000000
0.000000 0.053126 0.000000
0.384865 0.083202 0.000000
0.567921 0.158703 0.000000
0.630188 0.270621 0.000000
0.635788 0.378621 0.000000
0.612213 0.469358 0.000000
0.567973 0.541110 0.000000
0.530642 0.612213 0.000000
0.504514 0.681446 0.000000
0.530010 0.764132 0.000000
0.591361 0.838102 0.000000
0.749544 0.884436 0.000000
1.000000 0.909636 0.000000
0.000000 0.069440 0.000000
0.318592 0.097934 0.000000
0.497847 0.157722 0.000000
0.557297 0.256311 0.000000
0.570670 0.358239 0.000000
0.541110 0.432027 0.000000
0.500000 0.500000 0.000000
0.458890 0.567973 0.000000
0.429330 0.641761 0.000000
0.442703 0.743689 0.000000
0.502153 0.842278 0.000000
0.681409 0.902066 0.000000
1.000000 0.930560 0.000000
0.000000 0.090364 0.000000
0.250457 0.115564 0.000000
0.408640 0.161898 0.000000
0.469989 0.235868 0.000000
0.495486 0.318554 0.000000
0.469358 0.387787 0.000000
0.432027 0.458890 0.000000
0.387787 0.530642 0.000000
0.364212 0.621379 0.000000
0.369812 0.729379 0.000000
0.432079 0.841297 0.000000
0.615136 0.916799 0.000000
1.000000 0.946874 0.000000
0.000000 0.117348 0.000000
0.183964 0.138618 0.000000
0.319682 0.181641 0.000000
0.375415 0.245353 0.000000
0.398527 0.309871 0.000000
0.378621 0.364212 0.000000
0.358239 0.429330 0.000000
0.318554 0.504514 0.000000
0.309871 0.601473 0.000000
0.303979 0.722970 0.000000
0.373312 0.840442 0.000000
0.558326 0.930029 0.000000
1.000000 0.959506 0.000000
0.000000 0.166886 0.000000
0.111449 0.183215 0.000000
0.198369 0.206029 0.000000
0.249287 0.248974 0.000000
0.277030 0.303979 0.000000
0.270621 0.369812 0.000000
0.256311 0.442703 0.000000
0.235868 0.530010 0.000000
0.245353 0.624585 0.000000
0.248974 0.750713 0.000000
0.325767 0.855640 0.000000
0.519199 0.945400 0.000000
1.000000 0.969195 0.000000
0.000000 0.233749 0.000000
0.063990 0.253678 0.000000
0.114662 0.285363 0.000000
0.144360 0.325767 0.000000
0.159558 0.373312 0.000000
0.158703 0.432079 0.000000
0.157722 0.502153 0.000000
0.161898 0.591361 0.000000
0.181641 0.680318 0.000000
0.206029 0.801631 0.000000
0.285363 0.885338 0.000000
0.493410 0.962008 0.000000
1.000000 0.978218 0.000000
0.000000 0.478962 0.000000
0.019236 0.481785 0.000000
0.037992 0.493410 0.000000
0.054600 0.519199 0.000000
0.069971 0.558326 0.000000
0.083201 0.615136 0.000000
0.097934 0.681409 0.000000
0.115564 0.749544 0.000000
0.138618 0.816037 0.000000
0.183215 0.888551 0.000000
0.253678 0.936010 0.000000
0.481785 0.980764 0.000000
1.000000 0.988695 0.000000
0.000000 1.000000 0.000000
0.011305 1.000000 0.000000
0.021782 1.000000 0.000000
0.030805 1.000000 0.000000
0.040494 1.000000 0.000000
0.053126 1.000000 0.000000
0.069440 1.000000 0.000000
0.090364 1.000000 0.000000
0.117348 1.000000 0.000000
0.166886 1.000000 0.000000
0.233749 1.000000 0.000000
0.478962 1.000000 0.000000
1.000000 1.000000 0.000000
0.000000 0.000000 0.082500
0.521039 0.000000 0.082500
0.766251 0.000000 0.082500
0.833115 0.000000 0.082500
0.882652 0.000000 0.082500
0.909636 0.000000 0.082500
0.930560 0.000000 0.082500
0.946874 0.000000 0.082500
0.959506 0.000000 0.082500
0.969195 0.000000 0.082500
0.978218 0.000000 0.082500
0.988695 0.000000 0.082500
1.000000 0.000000 0.082500
0.000000 0.011305 0.082500
0.518216 0.019236 0.082500
0.746323 0.063991 0.082500
0.816785 0.111449 0.082500
0.861382 0.183964 0.082500
0.884436 0.250457 0.082500
0.902066 0.318592 0.082500
0.916798 0.384865 0.082500
0.930029 0.441676 0.082500
0.945400 0.480802 0.082500
0.962008 0.506591 0.082500
0.980764 0.518216 0.082500
1.000000 0.521039 0.082500
0.000000 0.021782 0.082500
0.506591 0.037992 0.082500
0.714637 0.114662 0.082500
0.793971 0.198369 0.082500
0.818359 0.319682 0.082500
0.838102 0.408640 0.082500
0.842278 0.497847 0.082500
0.841297 0.567921 0.082500
0.840442 0.626688 0.082500
0.855640 0.674232 0.082500
0.885338 0.714637 0.082500
0.936010 0.746323 0.082500
1.000000 0.766251 0.082500
0.000000 0.030805 0.082500
0.480802 0.054600 0.082500
0.674232 0.144360 0.082500
0.751026 0.249287 0.082500
0.754646 0.375415 0.082500
0.764132 0.469989 0.082500
0.743689 0.557297 0.082500
0.729379 0.630188 0.082500
0.722970 0.696021 0.082500
0.750713 0.751026 0.082500
0.801631 0.793971 0.082500
0.888551 0.816786 0.082500
1.000000 0.833115 0.082500
0.000000 0.040494 0.082500
0.441676 0.069971 0.082500
0.626688 0.159558 0.082500
0.696021 0.277030 0.082500
0.690128 0.398527 0.082500
0.681446 0.495486 0.082500
0.641761 0.570670 0.082500
0.621379 0.635788 0.082500
0.601473 0.690128 0.082500
0.624585 0.754646 0.082500
0.680318 0.818359 0.082500
0.816037 0.861382 0.082500
1.000000 0.882652 0.082500
0.000000 0.053126 0.082500
0.384865 0.083202 0.082500
0.567921 0.158703 0.082500
0.630188 0.270621 0.082500
0.635788 0.378621 0.082500
0.612213 0.469358 0.082500
0.567973 0.541110 0.082500
0.530642 0.612213 0.082500
0.504514 0.681446 0.082500
0.530010 0.764132 0.082500
0.591361 0.838102 0.082500
0.749544 0.884436 0.082500
1.000000 0.909636 0.082500
0.000000 0.069440 0.082500
0.318592 0.097934 0.082500
0.497847 0.157722 0.082500
0.557297 0.256311 0.082500
0.570670 0.358239 0.082500
0.541110 0.432027 0.082500
0.500000 0.500000 0.082500
0.458890 0.567973 0.082500
0.429330 0.641761 0.082500
0.442703 0.743689 0.082500
0.502153 0.842278 0.082500
0.681409 0.902066 0.082500
1.000000 0.930560 0.082500
0.000000 0.090364 0.082500
0.250457 0.115564 0.082500
0.408640 0.161898 0.082500
0.469989 0.235868 0.082500
0.495486 0.318554 0.082500
0.469358 0.387787 0.082500
0.432027 0.458890 0.082500
0.387787 0.530642 0.082500
0.364212 0.621379 0.082500
0.369812 0.729379 0.082500
0.432079 0.841297 0.082500
0.615136 0.916799 0.082500
1.000000 0.946874 0.082500
0.000000 0.117348 0.082500
0.183964 0.138618 0.082500
0.319682 0.181641 0.082500
0.375415 0.245353 0.082500
0.398527 0.309871 0.082500
0.378621 0.364212 0.082500
0.358239 0.429330 0.082500
0.318554 0.504514 0.082500
0.309871 0.601473 0.082500
0.303979 0.722970 0.082500
0.373312 0.840442 0.082500
0.558326 0.930029 0.082500
1.000000 0.959506 0.082500
0.000000 0.166886 0.082500
0.111449 0.183215 0.082500
0.198369 0.206029 0.082500
0.249287 0.248974 0.082500
0.277030 0.303979 0.082500
0.270621 0.369812 0.082500
0.256311 0.442703 0.082500
0.235868 0.530010 0.082500
0.245353 0.624585 0.082500
0.248974 0.750713 0.082500
0.325767 0.855640 0.082500
0.519199 0.945400 0.082500
1.000000 0.969195 0.082500
0.000000 0.233749 0.082500
0.063990 0.253678 0.082500
0.114662 0.285363 0.082500
0.144360 0.325767 0.082500
0.159558 0.373312 0.082500
0.158703 0.432079 0.082500
0.157722 0.502153 0.082500
0.161898 0.591361 0.082500
0.181641 0.680318 0.082500
0.206029 0.801631 0.082500
0.285363 0.885338 0.082500
0.493410 0.962008 0.082500
1.000000 0.978218 0.082500
0.000000 0.478962 0.082500
0.019236 0.481785 0.082500
0.037992 0.493410 0.082500
0.054600 0.519199 0.082500
0.069971 0.558326 0.082500
0.083201 0.615136 0.082500
0.097934 0.681409 0.082500
0.115564 0.749544 0.082500
0.138618 0.816037 0.082500
0.183215 0.888551 0.082500
0.253678 0.936010 0.082500
0.481785 0.980764 0.082500
1.000000 0.988695 0.082500
0.000000 1.000000 0.082500
0.011305 1.000000 0.082500
0.021782 1.000000 0.082500
0.030805 1.000000 0.082500
0.040494 1.000000 0.082500
0.053126 1.000000 0.082500
0.069440 1.000000 0.082500
0.090364 1.000000 0.082500
0.117348 1.000000 0.082500
0.166886 1.000000 0.082500
0.233749 1.000000 0.082500
0.478962 1.000000 0.082500
1.000000 1.000000 0.082500
0.000000 0.000000 0.165000
0.521039 0.000000 0.165000
0.766251 0.000000 0.165000
0.833115 0.000000 0.165000
0.882652 0.000000 0.165000
0.909636 0.000000 0.165000
0.930560 0.000000 0.165000
0.946874 0.000000 0.165000
0.959506 0.000000 0.165000
0.969195 0.000000 0.165000
0.978218 0.000000 0.165000
0.988695 0.000000 0.165000
1.000000 0.000000 0.165000
0.000000 0.011305 0.165000
0.518216 0.019236 0.165000
0.746323 0.063991 0.165000
0.816785 0.111449 0.165000
0.861382 0.183964 0.165000
0.884436 0.250457 0.165000
0.902066 0.318592 0.165000
0.916798 0.384865 0.165000
0.930029 0.441676 0.165000
0.945400 0.480802 0.165000
0.962008 0.506591 0.165000
0.980764 0.518216 0.165000
1.000000 0.521039 0.165000
0.000000 0.021782 0.165000
0.506591 0.037992 0.165000
[...]
POINT_DATA 845 
VECTORS pos float 
0.000000 0.000000 0.000000
0.521039 0.000000 0.000000
0.766251 0.000000 0.000000
0.833115 0.000000 0.000000
0.882652 0.000000 0.000000
0.909636 0.000000 0.000000
0.930560 0.000000 0.000000
0.946874 0.000000 0.000000
0.959506 0.000000 0.000000
0.969195 0.000000 0.000000
0.978218 0.000000 0.000000
0.988695 0.000000 0.000000
1.000000 0.000000 0.000000
0.000000 0.011305 0.000000
0.518216 0.019236 0.000000
0.746323 0.063991 0.000000
0.816785 0.111449 0.000000
0.861382 0.183964 0.000000
0.884436 0.250457 0.000000
0.902066 0.318592 0.000000
0.916798 0.384865 0.000000
0.930029 0.441676 0.000000
0.945400 0.480802 0.000000
0.962008 0.506591 0.000000
0.980764 0.518216 0.000000
1.000000 0.521039 0.000000
0.000000 0.021782 0.000000
0.506591 0.037992 0.000000
0.714637 0.114662 0.000000
0.793971 0.198369 0.000000
0.818359 0.319682 0.000000
0.838102 0.408640 0.000000
0.842278 0.497847 0.000000
0.841297 0.567921 0.000000
0.840442 0.626688 0.000000
0.855640 0.674232 0.000000
0.885338 0.714637 0.000000
0.936010 0.746323 0.000000
1.000000 0.766251 0.000000
0.000000 0.030805 0.000000
0.480802 0.054600 0.000000
0.674232 0.144360 0.000000
0.751026 0.249287 0.000000
0.754646 0.375415 0.000000
0.764132 0.469989 0.000000
0.743689 0.557297 0.000000
0.729379 0.630188 0.000000
0.722970 0.696021 0.000000
0.750713 0.751026 0.000000
0.801631 0.793971 0.000000
0.888551 0.816786 0.000000
1.000000 0.833115 0.000000
0.000000 0.040494 0.000000
0.441676 0.069971 0.000000
0.626688 0.159558 0.000000
0.696021 0.277030 0.000000
0.690128 0.398527 0.000000
0.681446 0.495486 0.000000
0.641761 0.570670 0.000000
0.621379 0.635788 0.000000
0.601473 0.690128 0.000000
0.624585 0.754646 0.000000
0.680318 0.818359 0.000000
0.816037 0.861382 0.000000
1.000000 0.882652 0.000000
0.000000 0.053126 0.000000
0.384865 0.083202 0.000000
0.567921 0.158703 0.000000
0.630188 0.270621 0.000000
0.635788 0.378621 0.000000
0.612213 0.469358 0.000000
0.567973 0.541110 0.000000
0.530642 0.612213 0.000000
0.504514 0.681446 0.000000
0.530010 0.764132 0.000000
0.591361 0.838102 0.000000
0.749544 0.884436 0.000000
1.000000 0.909636 0.000000
0.000000 0.069440 0.000000
0.318592 0.097934 0.000000
0.497847 0.157722 0.000000
0.557297 0.256311 0.000000
0.570670 0.358239 0.000000
0.541110 0.432027 0.000000
0.500000 0.500000 0.000000
0.458890 0.567973 0.000000
0.429330 0.641761 0.000000
0.442703 0.743689 0.000000
0.502153 0.842278 0.000000
0.681409 0.902066 0.000000
1.000000 0.930560 0.000000
0.000000 0.090364 0.000000
0.250457 0.115564 0.000000
0.408640 0.161898 0.000000
0.469989 0.235868 0.000000
0.495486 0.318554 0.000000
0.469358 0.387787 0.000000
0.432027 0.458890 0.000000
0.387787 0.530642 0.000000
0.364212 0.621379 0.000000
0.369812 0.729379 0.000000
0.432079 0.841297 0.000000
0.615136 0.916799 0.000000
1.000000 0.946874 0.000000
0.000000 0.117348 0.000000
0.183964 0.138618 0.000000
0.319682 0.181641 0.000000
0.375415 0.245353 0.000000
0.398527 0.309871 0.000000
0.378621 0.364212 0.000000
0.358239 0.429330 0.000000
0.318554 0.504514 0.000000
0.309871 0.601473 0.000000
0.303979 0.722970 0.000000
0.373312 0.840442 0.000000
0.558326 0.930029 0.000000
1.000000 0.959506 0.000000
0.000000 0.166886 0.000000
0.111449 0.183215 0.000000
0.198369 0.206029 0.000000
0.249287 0.248974 0.000000
0.277030 0.303979 0.000000
0.270621 0.369812 0.000000
0.256311 0.442703 0.000000
0.235868 0.530010 0.000000
0.245353 0.624585 0.000000
0.248974 0.750713 0.000000
0.325767 0.855640 0.000000
0.519199 0.945400 0.000000
1.000000 0.969195 0.000000
0.000000 0.233749 0.000000
0.063990 0.253678 0.000000
0.114662 0.285363 0.000000
0.144360 0.325767 0.000000
0.159558 0.373312 0.000000
0.158703 0.432079 0.000000
0.157722 0.502153 0.000000
0.161898 0.591361 0.000000
0.181641 0.680318 0.000000
0.206029 0.801631 0.000000
0.285363 0.885338 0.000000
0.493410 0.962008 0.000000
1.000000 0.978218 0.000000
0.000000 0.478962 0.000000
0.019236 0.481785 0.000000
0.037992 0.493410 0.000000
0.054600 0.519199 0.000000
0.069971 0.558326 0.000000
0.083201 0.615136 0.000000
0.097934 0.681409 0.000000
0.115564 0.749544 0.000000
0.138618 0.816037 0.000000
0.183215 0.888551 0.000000
0.253678 0.936010 0.000000
0.481785 0.980764 0.000000
1.000000 0.988695 0.000000
0.000000 1.000000 0.000000
0.011305 1.000000 0.000000
0.021782 1.000000 0.000000
0.030805 1.000000 0.000000
0.040494 1.000000 0.000000
0.053126 1.000000 0.000000
0.069440 1.000000 0.000000
0.090364 1.000000 0.000000
0.117348 1.000000 0.000000
0.166886 1.000000 0.000000
0.233749 1.000000 0.000000
0.478962 1.000000 0.000000
1.000000 1.000000 0.000000
0.000000 0.000000 0.082500
0.521039 0.000000 0.082500
0.766251 0.000000 0.082500
0.833115 0.000000 0.082500
0.882652 0.000000 0.082500
0.909636 0.000000 0.082500
0.930560 0.000000 0.082500
0.946874 0.000000 0.082500
0.959506 0.000000 0.082500
0.969195 0.000000 0.082500
0.978218 0.000000 0.082500
0.988695 0.000000 0.082500
1.000000 0.000000 0.082500
0.000000 0.011305 0.082500
0.518216 0.019236 0.082500
0.746323 0.063991 0.082500
0.816785 0.111449 0.082500
0.861382 0.183964 0.082500
0.884436 0.250457 0.082500
0.902066 0.318592 0.082500
0.916798 0.384865 0.082500
0.930029 0.441676 0.082500
0.945400 0.480802 0.082500
0.962008 0.506591 0.082500
0.980764 0.518216 0.082500
1.000000 0.521039 0.082500
0.000000 0.021782 0.082500
0.506591 0.037992 0.082500
0.714637 0.114662 0.082500
0.793971 0.198369 0.082500
0.818359 0.319682 0.082500
0.838102 0.408640 0.082500
0.842278 0.497847 0.082500
0.841297 0.567921 0.082500
0.840442 0.626688 0.082500
0.855640 0.674232 0.082500
0.885338 0.714637 0.082500
0.936010 0.746323 0.082500
1.000000 0.766251 0.082500
0.000000 0.030805 0.082500
0.480802 0.054600 0.082500
0.674232 0.144360 0.082500
0.751026 0.249287 0.082500
0.754646 0.375415 0.082500
0.764132 0.469989 0.082500
0.743689 0.557297 0.082500
0.729379 0.630188 0.082500
0.722970 0.696021 0.082500
0.750713 0.751026 0.082500
0.801631 0.793971 0.082500
0.888551 0.816786 0.082500
1.000000 0.833115 0.082500
0.000000 0.040494 0.082500
0.441676 0.069971 0.082500
0.626688 0.159558 0.082500
0.696021 0.277030 0.082500
0.690128 0.398527 0.082500
0.681446 0.495486 0.082500
0.641761 0.570670 0.082500
0.621379 0.635788 0.082500
0.601473 0.690128 0.082500
0.624585 0.754646 0.082500
0.680318 0.818359 0.082500
0.816037 0.861382 0.082500
1.000000 0.882652 0.082500
0.000000 0.053126 0.082500
0.384865 0.083202 0.082500
0.567921 0.158703 0.082500
0.630188 0.270621 0.082500
0.635788 0.378621 0.082500
0.612213 0.469358 0.082500
0.567973 0.541110 0.082500
0.530642 0.612213 0.082500
0.504514 0.681446 0.082500
0.530010 0.764132 0.082500
0.591361 0.838102 0.082500
0.749544 0.884436 0.082500
1.000000 0.909636 0.082500
0.000000 0.069440 0.082500
0.318592 0.097934 0.082500
0.497847 0.157722 0.082500
0.557297 0.256311 0.082500
0.570670 0.358239 0.082500
0.541110 0.432027 0.082500
0.500000 0.500000 0.082500
0.458890 0.567973 0.082500
0.429330 0.641761 0.082500
0.442703 0.743689 0.082500
0.502153 0.842278 0.082500
0.681409 0.902066 0.082500
1.000000 0.930560 0.082500
0.000000 0.090364 0.082500
0.250457 0.115564 0.082500
0.408640 0.161898 0.082500
0.469989 0.235868 0.082500
0.495486 0.318554 0.082500
0.469358 0.387787 0.082500
0.432027 0.458890 0.082500
0.387787 0.530642 0.082500
0.364212 0.621379 0.082500
0.369812 0.729379 0.082500
0.432079 0.841297 0.082500
0.615136 0.916799 0.082500
1.000000 0.946874 0.082500
0.000000 0.117348 0.082500
0.183964 0.138618 0.082500
0.319682 0.181641 0.082500
0.375415 0.245353 0.082500
0.398527 0.309871 0.082500
0.378621 0.364212 0.082500
0.358239 0.429330 0.082500
0.318554 0.504514 0.082500
0.309871 0.601473 0.082500
0.303979 0.722970 0.082500
0.373312 0.840442 0.082500
0.558326 0.930029 0.082500
1.000000 0.959506 0.082500
0.000000 0.166886 0.082500
0.111449 0.183215 0.082500
0.198369 0.206029 0.082500
0.249287 0.248974 0.082500
0.277030 0.303979 0.082500
0.270621 0.369812 0.082500
0.256311 0.442703 0.082500
0.235868 0.530010 0.082500
0.245353 0.624585 0.082500
0.248974 0.750713 0.082500
0.325767 0.855640 0.082500
0.519199 0.945400 0.082500
1.000000 0.969195 0.082500
0.000000 0.233749 0.082500
0.063990 0.253678 0.082500
0.114662 0.285363 0.082500
0.144360 0.325767 0.082500
0.159558 0.373312 0.082500
0.158703 0.432079 0.082500
0.157722 0.502153 0.082500
0.161898 0.591361 0.082500
0.181641 0.680318 0.082500
0.206029 0.801631 0.082500
0.285363 0.885338 0.082500
0.493410 0.962008 0.082500
1.000000 0.978218 0.082500
0.000000 0.478962 0.082500
0.019236 0.481785 0.082500
0.037992 0.493410 0.082500
0.054600 0.519199 0.082500
0.069971 0.558326 0.082500
0.083201 0.615136 0.082500
0.097934 0.681409 0.082500
0.115564 0.749544 0.082500
0.138618 0.816037 0.082500
0.183215 0.888551 0.082500
0.253678 0.936010 0.082500
0.481785 0.980764 0.082500
1.000000 0.988695 0.082500
0.000000 1.000000 0.082500
0.011305 1.000000 0.082500
0.021782 1.000000 0.082500
0.030805 1.000000 0.082500
0.040494 1.000000 0.082500
0.053126 1.000000 0.082500
0.069440 1.000000 0.082500
0.090364 1.000000 0.082500
0.117348 1.000000 0.082500
0.166886 1.000000 0.082500
0.233749 1.000000 0.082500
0.478962 1.000000 0.082500
1.000000 1.000000 0.082500
0.000000 0.000000 0.165000
0.521039 0.000000 0.165000
0.766251 0.000000 0.165000
0.833115 0.000000 0.165000
0.882652 0.000000 0.165000
0.909636 0.000000 0.165000
0.930560 0.000000 0.165000
0.946874 0.000000 0.165000
0.959506 0.000000 0.165000
0.969195 0.000000 0.165000
0.978218 0.000000 0.165000
0.988695 0.000000 0.165000
1.000000 0.000000 0.165000
0.000000 0.011305 0.165000
0.518216 0.019236 0.165000
0.746323 0.063991 0.165000
0.816785 0.111449 0.165000
0.861382 0.183964 0.165000
0.884436 0.250457 0.165000
0.902066 0.318592 0.165000
0.916798 0.384865 0.165000
0.930029 0.441676 0.165000
0.945400 0.480802 0.165000
0.962008 0.506591 0.165000
0.980764 0.518216 0.165000
1.000000 0.521039 0.165000
0.000000 0.021782 0.165000
0.506591 0.037992 0.165000
0.714637 0.114662 0.165000
0.793971 0.198369 0.165000
0.818359 0.319682 0.165000
0.838102 0.408640 0.165000
0.842278 0.497847 0.165000
0.841297 0.567921 0.165000
0.840442 0.626688 0.165000
0.855640 0.674232 0.165000
0.885338 0.714637 0.165000
0.936010 0.746323 0.165000
1.000000 0.766251 0.165000
0.000000 0.030805 0.165000
0.480802 0.054600 0.165000
0.674232 0.144360 0.165000
0.751026 0.249287 0.165000
0.754646 0.375415 0.165000
0.764132 0.469989 0.165000
0.743689 0.557297 0.165000
0.729379 0.630188 0.165000
0.722970 0.696021 0.165000
0.750713 0.751026 0.165000
0.801631 0.793971 0.165000
0.888551 0.816786 0.165000
1.000000 0.833115 0.165000
0.000000 0.040494 0.165000
0.441676 0.069971 0.165000
0.626688 0.159558 0.165000
0.696021 0.277030 0.165000
0.690128 0.398527 0.165000
0.681446 0.495486 0.165000
0.641761 0.570670 0.165000
0.621379 0.635788 0.165000
0.601473 0.690128 0.165000
0.624585 0.754646 0.165000
0.680318 0.818359 0.165000
0.816037 0.861382 0.165000
1.000000 0.882652 0.165000
0.000000 0.053126 0.165000
0.384865 0.083202 0.165000
0.567921 0.158703 0.165000
0.630188 0.270621 0.165000
0.635788 0.378621 0.165000
0.612213 0.469358 0.165000
0.567973 0.541110 0.165000
0.530642 0.612213 0.165000
0.504514 0.681446 0.165000
0.530010 0.764132 0.165000
0.591361 0.838102 0.165000
0.749544 0.884436 0.165000
1.000000 0.909636 0.165000
0.000000 0.069440 0.165000
0.318592 0.097934 0.165000
0.497847 0.157722 0.165000
0.557297 0.256311 0.165000
0.570670 0.358239 0.165000
0.541110 0.432027 0.165000
0.500000 0.500000 0.165000
0.458890 0.567973 0.165000
0.429330 0.641761 0.165000
0.442703 0.743689 0.165000
0.502153 0.842278 0.165000
0.681409 0.902066 0.165000
1.000000 0.930560 0.165000
0.000000 0.090364 0.165000
0.250457 0.115564 0.165000
0.408640 0.161898 0.165000
0.469989 0.235868 0.165000
0.495486 0.318554 0.165000
0.469358 0.387787 0.165000
0.432027 0.458890 0.165000
0.387787 0.530642 0.165000
0.364212 0.621379 0.165000
0.369812 0.729379 0.165000
0.432079 0.841297 0.165000
0.615136 0.916799 0.165000
1.000000 0.946874 0.165000
0.000000 0.117348 0.165000
0.183964 0.138618 0.165000
0.319682 0.181641 0.165000
0.375415 0.245353 0.165000
0.398527 0.309871 0.165000
0.378621 0.364212 0.165000
0.358239 0.429330 0.165000
0.318554 0.504514 0.165000
0.309871 0.601473 0.165000
0.303979 0.722970 0.165000
0.373312 0.840442 0.165000
0.558326 0.930029 0.165000
1.000000 0.959506 0.165000
0.000000 0.166886 0.165000
0.111449 0.183215 0.165000
0.198369 0.206029 0.165000
0.249287 0.248974 0.165000
0.277030 0.303979 0.165000
0.270621 0.369812 0.165000
0.256311 0.442703 0.165000
0.235868 0.530010 0.165000
0.245353 0.624585 0.165000
0.248974 0.750713 0.165000
0.325767 0.855640 0.165000
0.519199 0.945400 0.165000
1.000000 0.969195 0.165000
0.000000 0.233749 0.165000
0.063990 0.253678 0.165000
0.114662 0.285363 0.165000
0.144360 0.325767 0.165000
0.159558 0.373312 0.165000
0.158703 0.432079 0.165000
0.157722 0.502153 0.165000
0.161898 0.591361 0.165000
0.181641 0.680318 0.165000
0.206029 0.801631 0.165000
0.285363 0.885338 0.165000
0.493410 0.962008 0.165000
1.000000 0.978218 0.165000
0.000000 0.478962 0.165000
0.019236 0.481785 0.165000
0.037992 0.493410 0.165000
0.054600 0.519199 0.165000
0.069971 0.558326 0.165000
0.083201 0.615136 0.165000
0.097934 0.681409 0.165000
0.115564 0.749544 0.165000
0.138618 0.816037 0.165000
0.183215 0.888551 0.165000
0.253678 0.936010 0.165000
0.481785 0.980764 0.165000
1.000000 0.988695 0.165000
0.000000 1.000000 0.165000
0.011305 1.000000 0.165000
0.021782 1.000000 0.165000
0.030805 1.000000 0.165000
0.040494 1.000000 0.165000
0.053126 1.000000 0.165000
0.069440 1.000000 0.165000
0.090364 1.000000 0.165000
0.117348 1.000000 0.165000
0.166886 1.000000 0.165000
0.233749 1.000000 0.165000
0.478962 1.000000 0.165000
1.000000 1.000000 0.165000
0.000000 0.000000 0.247500
0.521039 0.000000 0.247500
0.766251 0.000000 0.247500
0.833115 0.000000 0.247500
0.882652 0.000000 0.247500
0.909636 0.000000 0.247500
0.930560 0.000000 0.247500
0.946874 0.000000 0.247500
0.959506 0.000000 0.247500
0.969195 0.000000 0.247500
0.978218 0.000000 0.247500
0.988695 0.000000 0.247500
1.000000 0.000000 0.247500
0.000000 0.011305 0.247500
0.518216 0.019236 0.247500
0.746323 0.063991 0.247500
0.816785 0.111449 0.247500
0.861382 0.183964 0.247500
0.884436 0.250457 0.247500
0.902066 0.318592 0.247500
0.916798 0.384865 0.247500
0.930029 0.441676 0.247500
0.945400 0.480802 0.247500
0.962008 0.506591 0.247500
0.980764 0.518216 0.247500
1.000000 0.521039 0.247500
0.000000 0.021782 0.247500
0.506591 0.037992 0.247500
0.714637 0.114662 0.247500
0.793971 0.198369 0.247500
0.818359 0.319682 0.247500
0.838102 0.408640 0.247500
0.842278 0.497847 0.247500
0.841297 0.567921 0.247500
0.840442 0.626688 0.247500
0.855640 0.674232 0.247500
0.885338 0.714637 0.247500
0.936010 0.746323 0.247500
1.000000 0.766251 0.247500
0.000000 0.030805 0.247500
0.480802 0.054600 0.247500
0.674232 0.144360 0.247500
0.751026 0.249287 0.247500
0.754646 0.375415 0.247500
0.764132 0.469989 0.247500
0.743689 0.557297 0.247500
0.729379 0.630188 0.247500
0.722970 0.696021 0.247500
0.750713 0.751026 0.247500
0.801631 0.793971 0.247500
0.888551 0.816786 0.247500
1.000000 0.833115 0.247500
0.000000 0.040494 0.247500
0.441676 0.069971 0.247500
0.626688 0.159558 0.247500
0.696021 0.277030 0.247500
0.690128 0.398527 0.247500
0.681446 0.495486 0.247500
0.641761 0.570670 0.247500
0.621379 0.635788 0.247500
0.601473 0.690128 0.247500
0.624585 0.754646 0.247500
0.680318 0.818359 0.247500
0.816037 0.861382 0.247500
1.000000 0.882652 0.247500
0.000000 0.053126 0.247500
0.384865 0.083202 0.247500
0.567921 0.158703 0.247500
0.630188 0.270621 0.247500
0.635788 0.378621 0.247500
0.612213 0.469358 0.247500
0.567973 0.541110 0.247500
0.530642 0.612213 0.247500
0.504514 0.681446 0.247500
0.530010 0.764132 0.247500
0.591361 0.838102 0.247500
0.749544 0.884436 0.247500
1.000000 0.909636 0.247500
0.000000 0.069440 0.247500
0.318592 0.097934 0.247500
0.497847 0.157722 0.247500
0.557297 0.256311 0.247500
0.570670 0.358239 0.247500
0.541110 0.432027 0.247500
0.500000 0.500000 0.247500
0.458890 0.567973 0.247500
0.429330 0.641761 0.247500
0.442703 0.743689 0.247500
0.502153 0.842278 0.247500
0.681409 0.902066 0.247500
1.000000 0.930560 0.247500
0.000000 0.090364 0.247500
0.250457 0.115564 0.247500
0.408640 0.161898 0.247500
0.469989 0.235868 0.247500
0.495486 0.318554 0.247500
0.469358 0.387787 0.247500
0.432027 0.458890 0.247500
0.387787 0.530642 0.247500
0.364212 0.621379 0.247500
0.369812 0.729379 0.247500
0.432079 0.841297 0.247500
0.615136 0.916799 0.247500
1.000000 0.946874 0.247500
0.000000 0.117348 0.247500
0.183964 0.138618 0.247500
0.319682 0.181641 0.247500
0.375415 0.245353 0.247500
0.398527 0.309871 0.247500
0.378621 0.364212 0.247500
0.358239 0.429330 0.247500
0.318554 0.504514 0.247500
0.309871 0.601473 0.247500
0.303979 0.722970 0.247500
0.373312 0.840442 0.247500
0.558326 0.930029 0.247500
1.000000 0.959506 0.247500
0.000000 0.166886 0.247500
0.111449 0.183215 0.247500
0.198369 0.206029 0.247500
0.249287 0.248974 0.247500
0.277030 0.303979 0.247500
0.270621 0.369812 0.247500
0.256311 0.442703 0.247500
0.235868 0.530010 0.247500
0.245353 0.624585 0.247500
0.248974 0.750713 0.247500
0.325767 0.855640 0.247500
0.519199 0.945400 0.247500
1.000000 0.969195 0.247500
0.000000 0.233749 0.247500
0.063990 0.253678 0.247500
0.114662 0.285363 0.247500
0.144360 0.325767 0.247500
0.159558 0.373312 0.247500
0.158703 0.432079 0.247500
0.157722 0.502153 0.247500
0.161898 0.591361 0.247500
0.181641 0.680318 0.247500
0.206029 0.801631 0.247500
0.285363 0.885338 0.247500
0.493410 0.962008 0.247500
1.000000 0.978218 0.247500
0.000000 0.478962 0.247500
0.019236 0.481785 0.247500
0.037992 0.493410 0.247500
0.054600 0.519199 0.247500
0.069971 0.558326 0.247500
0.083201 0.615136 0.247500
0.097934 0.681409 0.247500
0.115564 0.749544 0.247500
0.138618 0.816037 0.247500
0.183215 0.888551 0.247500
0.253678 0.936010 0.247500
0.481785 0.980764 0.247500
1.000000 0.988695 0.247500
0.000000 1.000000 0.247500
0.011305 1.000000 0.247500
0.021782 1.000000 0.247500
0.030805 1.000000 0.247500
0.040494 1.000000 0.247500
0.053126 1.000000 0.247500
0.069440 1.000000 0.247500
0.090364 1.000000 0.247500
0.117348 1.000000 0.247500
0.166886 1.000000 0.247500
0.233749 1.000000 0.247500
0.478962 1.000000 0.247500
1.000000 1.000000 0.247500
0.000000 0.000000 0.330000
0.521039 0.000000 0.330000
0.766251 0.000000 0.330000
0.833115 0.000000 0.330000
0.882652 0.000000 0.330000
0.909636 0.000000 0.330000
0.930560 0.000000 0.330000
0.946874 0.000000 0.330000
0.959506 0.000000 0.330000
0.969195 0.000000 0.330000
0.978218 0.000000 0.330000
0.988695 0.000000 0.330000
1.000000 0.000000 0.330000
0.000000 0.011305 0.330000
0.518216 0.019236 0.330000
0.746323 0.063991 0.330000
0.816785 0.111449 0.330000
0.861382 0.183964 0.330000
0.884436 0.250457 0.330000
0.902066 0.318592 0.330000
0.916798 0.384865 0.330000
0.930029 0.441676 0.330000
0.945400 0.480802 0.330000
0.962008 0.506591 0.330000
0.980764 0.518216 0.330000
1.000000 0.521039 0.330000
0.000000 0.021782 0.330000
0.506591 0.037992 0.330000
0.714637 0.114662 0.330000
0.793971 0.198369 0.330000
0.818359 0.319682 0.330000
0.838102 0.408640 0.330000
0.842278 0.497847 0.330000
0.841297 0.567921 0.330000
0.840442 0.626688 0.330000
0.855640 0.674232 0.330000
0.885338 0.714637 0.330000
0.936010 0.746323 0.330000
1.000000 0.766251 0.330000
0.000000 0.030805 0.330000
0.480802 0.054600 0.330000
0.674232 0.144360 0.330000
0.751026 0.249287 0.330000
0.754646 0.375415 0.330000
0.764132 0.469989 0.330000
0.743689 0.557297 0.330000
0.729379 0.630188 0.330000
0.722970 0.696021 0.330000
0.750713 0.751026 0.330000
0.801631 0.793971 0.330000
0.888551 0.816786 0.330000
1.000000 0.833115 0.330000
0.000000 0.040494 0.330000
0.441676 0.069971 0.330000
0.626688 0.159558 0.330000
0.696021 0.277030 0.330000
0.690128 0.398527 0.330000
0.681446 0.495486 0.330000
0.641761 0.570670 0.330000
0.621379 0.635788 0.330000
0.601473 0.690128 0.330000
0.624585 0.754646 0.330000
0.680318 0.818359 0.330000