# vtk DataFile Version 2.0
Mesh for Fierro
ASCII 
DATASET UNSTRUCTURED_GRID

POINTS 845 float
0.000000 0.000000 0.000000
0.502875 0.000000 0.000000
0.893561 0.000000 0.000000
0.942975 0.000000 0.000000
0.956671 0.000000 0.000000
0.966846 0.000000 0.000000
0.974780 0.000000 0.000000
0.979889 0.000000 0.000000
0.983462 0.000000 0.000000
0.985369 0.000000 0.000000
0.983421 0.000000 0.000000
0.991234 0.000000 0.000000
1.000000 0.000000 0.000000
0.000000 0.008766 0.000000
0.611944 0.016066 0.000000
0.899418 0.105338 0.000000
0.881303 0.293883 0.000000
0.900135 0.369356 0.000000
0.902594 0.481607 0.000000
0.906803 0.576204 0.000000
0.912999 0.653205 0.000000
0.921892 0.704646 0.000000
0.935942 0.731417 0.000000
0.958394 0.707236 0.000000
0.983934 0.611944 0.000000
1.000000 0.502875 0.000000
0.000000 0.016579 0.000000
0.707236 0.041606 0.000000
0.846220 0.195173 0.000000
0.847973 0.404276 0.000000
0.840929 0.573869 0.000000
0.837037 0.663698 0.000000
0.815715 0.720803 0.000000
0.786128 0.739487 0.000000
0.781729 0.764504 0.000000
0.789057 0.800366 0.000000
0.804827 0.846220 0.000000
0.894663 0.899418 0.000000
1.000000 0.893561 0.000000
0.000000 0.014631 0.000000
0.731417 0.064058 0.000000
0.800366 0.210943 0.000000
0.824504 0.450245 0.000000
0.743496 0.581174 0.000000
0.725886 0.644107 0.000000
0.650419 0.689251 0.000000
0.575208 0.742947 0.000000
0.551729 0.789469 0.000000
0.549755 0.824504 0.000000
0.595724 0.847973 0.000000
0.706118 0.881303 0.000000
1.000000 0.942975 0.000000
0.000000 0.016538 0.000000
0.704646 0.078108 0.000000
0.764504 0.218271 0.000000
0.789469 0.448271 0.000000
0.690998 0.548319 0.000000
0.619283 0.628541 0.000000
0.536822 0.653023 0.000000
0.494364 0.670704 0.000000
0.451681 0.690998 0.000000
0.418826 0.743496 0.000000
0.426132 0.840930 0.000000
0.630645 0.900135 0.000000
1.000000 0.956671 0.000000
0.000000 0.020111 0.000000
0.653205 0.087001 0.000000
0.739487 0.213872 0.000000
0.742947 0.424792 0.000000
0.670704 0.505636 0.000000
0.590437 0.567995 0.000000
0.516166 0.575485 0.000000
0.432005 0.590437 0.000000
0.371460 0.619284 0.000000
0.355893 0.725886 0.000000
0.336302 0.837037 0.000000
0.518394 0.902595 0.000000
1.000000 0.966846 0.000000
0.000000 0.025220 0.000000
0.576204 0.093197 0.000000
0.720803 0.184285 0.000000
0.689251 0.349581 0.000000
0.653023 0.463178 0.000000
0.575485 0.483834 0.000000
0.500000 0.500000 0.000000
0.424515 0.516166 0.000000
0.346977 0.536822 0.000000
0.310749 0.650419 0.000000
0.279197 0.815715 0.000000
0.423797 0.906803 0.000000
1.000000 0.974780 0.000000
0.000000 0.033154 0.000000
0.481607 0.097406 0.000000
0.663698 0.162962 0.000000
0.644107 0.274114 0.000000
0.628541 0.380717 0.000000
0.567995 0.409563 0.000000
0.483834 0.424515 0.000000
0.409562 0.432005 0.000000
0.329296 0.494364 0.000000
0.257053 0.575208 0.000000
0.260512 0.786127 0.000000
0.346796 0.913000 0.000000
1.000000 0.979889 0.000000
0.000000 0.043329 0.000000
0.369356 0.099865 0.000000
0.573869 0.159070 0.000000
0.581174 0.256504 0.000000
0.548319 0.309002 0.000000
0.505636 0.329296 0.000000
0.463178 0.346977 0.000000
0.380717 0.371460 0.000000
0.309002 0.451681 0.000000
0.210531 0.551729 0.000000
0.235497 0.781729 0.000000
0.295355 0.921892 0.000000
1.000000 0.983462 0.000000
0.000000 0.057025 0.000000
0.293883 0.118697 0.000000
0.404276 0.152027 0.000000
0.450245 0.175496 0.000000
0.448271 0.210531 0.000000
0.424792 0.257053 0.000000
0.349581 0.310749 0.000000
0.274114 0.355893 0.000000
0.256504 0.418826 0.000000
0.175496 0.549755 0.000000
0.199634 0.789056 0.000000
0.268584 0.935942 0.000000
1.000000 0.985369 0.000000
0.000000 0.106439 0.000000
0.105338 0.100583 0.000000
0.195173 0.153780 0.000000
0.210944 0.199634 0.000000
0.218271 0.235497 0.000000
0.213873 0.260512 0.000000
0.184285 0.279197 0.000000
0.162963 0.336302 0.000000
0.159070 0.426132 0.000000
0.152027 0.595724 0.000000
0.153780 0.804827 0.000000
0.292765 0.958394 0.000000
1.000000 0.983421 0.000000
0.000000 0.497125 0.000000
0.016066 0.388056 0.000000
0.041606 0.292765 0.000000
0.064058 0.268584 0.000000
0.078108 0.295355 0.000000
0.087000 0.346796 0.000000
0.093197 0.423798 0.000000
0.097405 0.518394 0.000000
0.099865 0.630645 0.000000
0.118697 0.706118 0.000000
0.100582 0.894663 0.000000
0.388056 0.983934 0.000000
1.000000 0.991234 0.000000
0.000000 1.000000 0.000000
0.008766 1.000000 0.000000
0.016579 1.000000 0.000000
0.014631 1.000000 0.000000
0.016538 1.000000 0.000000
0.020111 1.000000 0.000000
0.025220 1.000000 0.000000
0.033154 1.000000 0.000000
0.043329 1.000000 0.000000
0.057025 1.000000 0.000000
0.106439 1.000000 0.000000
0.497125 1.000000 0.000000
1.000000 1.000000 0.000000
0.000000 0.000000 0.082500
0.502875 0.000000 0.082500
0.893561 0.000000 0.082500
0.942975 0.000000 0.082500
0.956671 0.000000 0.082500
0.966846 0.000000 0.082500
0.974780 0.000000 0.082500
0.979889 0.000000 0.082500
0.983462 0.000000 0.082500
0.985369 0.000000 0.082500
0.983421 0.000000 0.082500
0.991234 0.000000 0.082500
1.000000 0.000000 0.082500
0.000000 0.008766 0.082500
0.611944 0.016066 0.082500
0.899418 0.105338 0.082500
0.881303 0.293883 0.082500
0.900135 0.369356 0.082500
0.902594 0.481607 0.082500
0.906803 0.576204 0.082500
0.912999 0.653205 0.082500
0.921892 0.704646 0.082500
0.935942 0.731417 0.082500
0.958394 0.707236 0.082500
0.983934 0.611944 0.082500
1.000000 0.502875 0.082500
0.000000 0.016579 0.082500
0.707236 0.041606 0.082500
0.846220 0.195173 0.082500
0.847973 0.404276 0.082500
0.840929 0.573869 0.082500
0.837037 0.663698 0.082500
0.815715 0.720803 0.082500
0.786128 0.739487 0.082500
0.781729 0.764504 0.082500
0.789057 0.800366 0.082500
0.804827 0.846220 0.082500
0.894663 0.899418 0.082500
1.000000 0.893561 0.082500
0.000000 0.014631 0.082500
0.731417 0.064058 0.082500
0.800366 0.210943 0.082500
0.824504 0.450245 0.082500
0.743496 0.581174 0.082500
0.725886 0.644107 0.082500
0.650419 0.689251 0.082500
0.575208 0.742947 0.082500
0.551729 0.789469 0.082500
0.549755 0.824504 0.082500
0.595724 0.847973 0.082500
0.706118 0.881303 0.082500
1.000000 0.942975 0.082500
0.000000 0.016538 0.082500
0.704646 0.078108 0.082500
0.764504 0.218271 0.082500
0.789469 0.448271 0.082500
0.690998 0.548319 0.082500
0.619283 0.628541 0.082500
0.536822 0.653023 0.082500
0.494364 0.670704 0.082500
0.451681 0.690998 0.082500
0.418826 0.743496 0.082500
0.426132 0.840930 0.082500
0.630645 0.900135 0.082500
1.000000 0.956671 0.082500
0.000000 0.020111 0.082500
0.653205 0.087001 0.082500
0.739487 0.213872 0.082500
0.742947 0.424792 0.082500
0.670704 0.505636 0.082500
0.590437 0.567995 0.082500
0.516166 0.575485 0.082500
0.432005 0.590437 0.082500
0.371460 0.619284 0.082500
0.355893 0.725886 0.082500
0.336302 0.837037 0.082500
0.518394 0.902595 0.082500
1.000000 0.966846 0.082500
0.000000 0.025220 0.082500
0.576204 0.093197 0.082500
0.720803 0.184285 0.082500
0.689251 0.349581 0.082500
0.653023 0.463178 0.082500
0.575485 0.483834 0.082500
0.500000 0.500000 0.082500
0.424515 0.516166 0.082500
0.346977 0.536822 0.082500
0.310749 0.650419 0.082500
0.279197 0.815715 0.082500
0.423797 0.906803 0.082500
1.000000 0.974780 0.082500
0.000000 0.033154 0.082500
0.481607 0.097406 0.082500
0.663698 0.162962 0.082500
0.644107 0.274114 0.082500
0.628541 0.380717 0.082500
0.567995 0.409563 0.082500
0.483834 0.424515 0.082500
0.409562 0.432005 0.082500
0.329296 0.494364 0.082500
0.257053 0.575208 0.082500
0.260512 0.786127 0.082500
0.346796 0.913000 0.082500
1.000000 0.979889 0.082500
0.000000 0.043329 0.082500
0.369356 0.099865 0.082500
0.573869 0.159070 0.082500
0.581174 0.256504 0.082500
0.548319 0.309002 0.082500
0.505636 0.329296 0.082500
0.463178 0.346977 0.082500
0.380717 0.371460 0.082500
0.309002 0.451681 0.082500
0.210531 0.551729 0.082500
0.235497 0.781729 0.082500
0.295355 0.921892 0.082500
1.000000 0.983462 0.082500
0.000000 0.057025 0.082500
0.293883 0.118697 0.082500
0.404276 0.152027 0.082500
0.450245 0.175496 0.082500
0.448271 0.210531 0.082500
0.424792 0.257053 0.082500
0.349581 0.310749 0.082500
0.274114 0.355893 0.082500
0.256504 0.418826 0.082500
0.175496 0.549755 0.082500
0.199634 0.789056 0.082500
0.268584 0.935942 0.082500
1.000000 0.985369 0.082500
0.000000 0.106439 0.082500
0.105338 0.100583 0.082500
0.195173 0.153780 0.082500
0.210944 0.199634 0.082500
0.218271 0.235497 0.082500
0.213873 0.260512 0.082500
0.184285 0.279197 0.082500
0.162963 0.336302 0.082500
0.159070 0.426132 0.082500
0.152027 0.595724 0.082500
0.153780 0.804827 0.082500
0.292765 0.958394 0.082500
1.000000 0.983421 0.082500
0.000000 0.497125 0.082500
0.016066 0.388056 0.082500
0.041606 0.292765 0.082500
0.064058 0.268584 0.082500
0.078108 0.295355 0.082500
0.087000 0.346796 0.082500
0.093197 0.423798 0.082500
0.097405 0.518394 0.082500
0.099865 0.630645 0.082500
0.118697 0.706118 0.082500
0.100582 0.894663 0.082500
0.388056 0.983934 0.082500
1.000000 0.991234 0.082500
0.000000 1.000000 0.082500
0.008766 1.000000 0.082500
0.016579 1.000000 0.082500
0.014631 1.000000 0.082500
0.016538 1.000000 0.082500
0.020111 1.000000 0.082500
0.025220 1.000000 0.082500
0.033154 1.000000 0.082500
0.043329 1.000000 0.082500
0.057025 1.000000 0.082500
0.106439 1.000000 0.082500
0.497125 1.000000 0.082500
1.000000 1.000000 0.082500
0.000000 0.000000 0.165000
0.502875 0.000000 0.165000
0.893561 0.000000 0.165000
0.942975 0.000000 0.165000
0.956671 0.000000 0.165000
0.966846 0.000000 0.165000
0.974780 0.000000 0.165000
0.979889 0.000000 0.165000
0.983462 0.000000 0.165000
0.985369 0.000000 0.165000
0.983421 0.000000 0.165000
0.991234 0.000000 0.165000
1.000000 0.000000 0.165000
0.000000 0.008766 0.165000
0.611944 0.016066 0.165000
0.899418 0.105338 0.165000
0.881303 0.293883 0.165000
0.900135 0.369356 0.165000
0.902594 0.481607 0.165000
0.906803 0.576204 0.165000
0.912999 0.653205 0.165000
0.921892 0.704646 0.165000
0.935942 0.731417 0.165000
0.958394 0.707236 0.165000
0.983934 0.611944 0.165000
1.000000 0.502875 0.165000
0.000000 0.016579 0.165000
0.707236 0.041606 0.165000
[...]
POINT_DATA 845 
VECTORS pos float 
0.000000 0.000000 0.000000
0.502875 0.000000 0.000000
0.893561 0.000000 0.000000
0.942975 0.000000 0.000000
0.956671 0.000000 0.000000
0.966846 0.000000 0.000000
0.974780 0.000000 0.000000
0.979889 0.000000 0.000000
0.983462 0.000000 0.000000
0.985369 0.000000 0.000000
0.983421 0.000000 0.000000
0.991234 0.000000 0.000000
1.000000 0.000000 0.000000
0.000000 0.008766 0.000000
0.611944 0.016066 0.000000
0.899418 0.105338 0.000000
0.881303 0.293883 0.000000
0.900135 0.369356 0.000000
0.902594 0.481607 0.000000
0.906803 0.576204 0.000000
0.912999 0.653205 0.000000
0.921892 0.704646 0.000000
0.935942 0.731417 0.000000
0.958394 0.707236 0.000000
0.983934 0.611944 0.000000
1.000000 0.502875 0.000000
0.000000 0.016579 0.000000
0.707236 0.041606 0.000000
0.846220 0.195173 0.000000
0.847973 0.404276 0.000000
0.840929 0.573869 0.000000
0.837037 0.663698 0.000000
0.815715 0.720803 0.000000
0.786128 0.739487 0.000000
0.781729 0.764504 0.000000
0.789057 0.800366 0.000000
0.804827 0.846220 0.000000
0.894663 0.899418 0.000000
1.000000 0.893561 0.000000
0.000000 0.014631 0.000000
0.731417 0.064058 0.000000
0.800366 0.210943 0.000000
0.824504 0.450245 0.000000
0.743496 0.581174 0.000000
0.725886 0.644107 0.000000
0.650419 0.689251 0.000000
0.575208 0.742947 0.000000
0.551729 0.789469 0.000000
0.549755 0.824504 0.000000
0.595724 0.847973 0.000000
0.706118 0.881303 0.000000
1.000000 0.942975 0.000000
0.000000 0.016538 0.000000
0.704646 0.078108 0.000000
0.764504 0.218271 0.000000
0.789469 0.448271 0.000000
0.690998 0.548319 0.000000
0.619283 0.628541 0.000000
0.536822 0.653023 0.000000
0.494364 0.670704 0.000000
0.451681 0.690998 0.000000
0.418826 0.743496 0.000000
0.426132 0.840930 0.000000
0.630645 0.900135 0.000000
1.000000 0.956671 0.000000
0.000000 0.020111 0.000000
0.653205 0.087001 0.000000
0.739487 0.213872 0.000000
0.742947 0.424792 0.000000
0.670704 0.505636 0.000000
0.590437 0.567995 0.000000
0.516166 0.575485 0.000000
0.432005 0.590437 0.000000
0.371460 0.619284 0.000000
0.355893 0.725886 0.000000
0.336302 0.837037 0.000000
0.518394 0.902595 0.000000
1.000000 0.966846 0.000000
0.000000 0.025220 0.000000
0.576204 0.093197 0.000000
0.720803 0.184285 0.000000
0.689251 0.349581 0.000000
0.653023 0.463178 0.000000
0.575485 0.483834 0.000000
0.500000 0.500000 0.000000
0.424515 0.516166 0.000000
0.346977 0.536822 0.000000
0.310749 0.650419 0.000000
0.279197 0.815715 0.000000
0.423797 0.906803 0.000000
1.000000 0.974780 0.000000
0.000000 0.033154 0.000000
0.481607 0.097406 0.000000
0.663698 0.162962 0.000000
0.644107 0.274114 0.000000
0.628541 0.380717 0.000000
0.567995 0.409563 0.000000
0.483834 0.424515 0.000000
0.409562 0.432005 0.000000
0.329296 0.494364 0.000000
0.257053 0.575208 0.000000
0.260512 0.786127 0.000000
0.346796 0.913000 0.000000
1.000000 0.979889 0.000000
0.000000 0.043329 0.000000
0.369356 0.099865 0.000000
0.573869 0.159070 0.000000
0.581174 0.256504 0.000000
0.548319 0.309002 0.000000
0.505636 0.329296 0.000000
0.463178 0.346977 0.000000
0.380717 0.371460 0.000000
0.309002 0.451681 0.000000
0.210531 0.551729 0.000000
0.235497 0.781729 0.000000
0.295355 0.921892 0.000000
1.000000 0.983462 0.000000
0.000000 0.057025 0.000000
0.293883 0.118697 0.000000
0.404276 0.152027 0.000000
0.450245 0.175496 0.000000
0.448271 0.210531 0.000000
0.424792 0.257053 0.000000
0.349581 0.310749 0.000000
0.274114 0.355893 0.000000
0.256504 0.418826 0.000000
0.175496 0.549755 0.000000
0.199634 0.789056 0.000000
0.268584 0.935942 0.000000
1.000000 0.985369 0.000000
0.000000 0.106439 0.000000
0.105338 0.100583 0.000000
0.195173 0.153780 0.000000
0.210944 0.199634 0.000000
0.218271 0.235497 0.000000
0.213873 0.260512 0.000000
0.184285 0.279197 0.000000
0.162963 0.336302 0.000000
0.159070 0.426132 0.000000
0.152027 0.595724 0.000000
0.153780 0.804827 0.000000
0.292765 0.958394 0.000000
1.000000 0.983421 0.000000
0.000000 0.497125 0.000000
0.016066 0.388056 0.000000
0.041606 0.292765 0.000000
0.064058 0.268584 0.000000
0.078108 0.295355 0.000000
0.087000 0.346796 0.000000
0.093197 0.423798 0.000000
0.097405 0.518394 0.000000
0.099865 0.630645 0.000000
0.118697 0.706118 0.000000
0.100582 0.894663 0.000000
0.388056 0.983934 0.000000
1.000000 0.991234 0.000000
0.000000 1.000000 0.000000
0.008766 1.000000 0.000000
0.016579 1.000000 0.000000
0.014631 1.000000 0.000000
0.016538 1.000000 0.000000
0.020111 1.000000 0.000000
0.025220 1.000000 0.000000
0.033154 1.000000 0.000000
0.043329 1.000000 0.000000
0.057025 1.000000 0.000000
0.106439 1.000000 0.000000
0.497125 1.000000 0.000000
1.000000 1.000000 0.000000
0.000000 0.000000 0.082500
0.502875 0.000000 0.082500
0.893561 0.000000 0.082500
0.942975 0.000000 0.082500
0.956671 0.000000 0.082500
0.966846 0.000000 0.082500
0.974780 0.000000 0.082500
0.979889 0.000000 0.082500
0.983462 0.000000 0.082500
0.985369 0.000000 0.082500
0.983421 0.000000 0.082500
0.991234 0.000000 0.082500
1.000000 0.000000 0.082500
0.000000 0.008766 0.082500
0.611944 0.016066 0.082500
0.899418 0.105338 0.082500
0.881303 0.293883 0.082500
0.900135 0.369356 0.082500
0.902594 0.481607 0.082500
0.906803 0.576204 0.082500
0.912999 0.653205 0.082500
0.921892 0.704646 0.082500
0.935942 0.731417 0.082500
0.958394 0.707236 0.082500
0.983934 0.611944 0.082500
1.000000 0.502875 0.082500
0.000000 0.016579 0.082500
0.707236 0.041606 0.082500
0.846220 0.195173 0.082500
0.847973 0.404276 0.082500
0.840929 0.573869 0.082500
0.837037 0.663698 0.082500
0.815715 0.720803 0.082500
0.786128 0.739487 0.082500
0.781729 0.764504 0.082500
0.789057 0.800366 0.082500
0.804827 0.846220 0.082500
0.894663 0.899418 0.082500
1.000000 0.893561 0.082500
0.000000 0.014631 0.082500
0.731417 0.064058 0.082500
0.800366 0.210943 0.082500
0.824504 0.450245 0.082500
0.743496 0.581174 0.082500
0.725886 0.644107 0.082500
0.650419 0.689251 0.082500
0.575208 0.742947 0.082500
0.551729 0.789469 0.082500
0.549755 0.824504 0.082500
0.595724 0.847973 0.082500
0.706118 0.881303 0.082500
1.000000 0.942975 0.082500
0.000000 0.016538 0.082500
0.704646 0.078108 0.082500
0.764504 0.218271 0.082500
0.789469 0.448271 0.082500
0.690998 0.548319 0.082500
0.619283 0.628541 0.082500
0.536822 0.653023 0.082500
0.494364 0.670704 0.082500
0.451681 0.690998 0.082500
0.418826 0.743496 0.082500
0.426132 0.840930 0.082500
0.630645 0.900135 0.082500
1.000000 0.956671 0.082500
0.000000 0.020111 0.082500
0.653205 0.087001 0.082500
0.739487 0.213872 0.082500
0.742947 0.424792 0.082500
0.670704 0.505636 0.082500
0.590437 0.567995 0.082500
0.516166 0.575485 0.082500
0.432005 0.590437 0.082500
0.371460 0.619284 0.082500
0.355893 0.725886 0.082500
0.336302 0.837037 0.082500
0.518394 0.902595 0.082500
1.000000 0.966846 0.082500
0.000000 0.025220 0.082500
0.576204 0.093197 0.082500
0.720803 0.184285 0.082500
0.689251 0.349581 0.082500
0.653023 0.463178 0.082500
0.575485 0.483834 0.082500
0.500000 0.500000 0.082500
0.424515 0.516166 0.082500
0.346977 0.536822 0.082500
0.310749 0.650419 0.082500
0.279197 0.815715 0.082500
0.423797 0.906803 0.082500
1.000000 0.974780 0.082500
0.000000 0.033154 0.082500
0.481607 0.097406 0.082500
0.663698 0.162962 0.082500
0.644107 0.274114 0.082500
0.628541 0.380717 0.082500
0.567995 0.409563 0.082500
0.483834 0.424515 0.082500
0.409562 0.432005 0.082500
0.329296 0.494364 0.082500
0.257053 0.575208 0.082500
0.260512 0.786127 0.082500
0.346796 0.913000 0.082500
1.000000 0.979889 0.082500
0.000000 0.043329 0.082500
0.369356 0.099865 0.082500
0.573869 0.159070 0.082500
0.581174 0.256504 0.082500
0.548319 0.309002 0.082500
0.505636 0.329296 0.082500
0.463178 0.346977 0.082500
0.380717 0.371460 0.082500
0.309002 0.451681 0.082500
0.210531 0.551729 0.082500
0.235497 0.781729 0.082500
0.295355 0.921892 0.082500
1.000000 0.983462 0.082500
0.000000 0.057025 0.082500
0.293883 0.118697 0.082500
0.404276 0.152027 0.082500
0.450245 0.175496 0.082500
0.448271 0.210531 0.082500
0.424792 0.257053 0.082500
0.349581 0.310749 0.082500
0.274114 0.355893 0.082500
0.256504 0.418826 0.082500
0.175496 0.549755 0.082500
0.199634 0.789056 0.082500
0.268584 0.935942 0.082500
1.000000 0.985369 0.082500
0.000000 0.106439 0.082500
0.105338 0.100583 0.082500
0.195173 0.153780 0.082500
0.210944 0.199634 0.082500
0.218271 0.235497 0.082500
0.213873 0.260512 0.082500
0.184285 0.279197 0.082500
0.162963 0.336302 0.082500
0.159070 0.426132 0.082500
0.152027 0.595724 0.082500
0.153780 0.804827 0.082500
0.292765 0.958394 0.082500
1.000000 0.983421 0.082500
0.000000 0.497125 0.082500
0.016066 0.388056 0.082500
0.041606 0.292765 0.082500
0.064058 0.268584 0.082500
0.078108 0.295355 0.082500
0.087000 0.346796 0.082500
0.093197 0.423798 0.082500
0.097405 0.518394 0.082500
0.099865 0.630645 0.082500
0.118697 0.706118 0.082500
0.100582 0.894663 0.082500
0.388056 0.983934 0.082500
1.000000 0.991234 0.082500
0.000000 1.000000 0.082500
0.008766 1.000000 0.082500
0.016579 1.000000 0.082500
0.014631 1.000000 0.082500
0.016538 1.000000 0.082500
0.020111 1.000000 0.082500
0.025220 1.000000 0.082500
0.033154 1.000000 0.082500
0.043329 1.000000 0.082500
0.057025 1.000000 0.082500
0.106439 1.000000 0.082500
0.497125 1.000000 0.082500
1.000000 1.000000 0.082500
0.000000 0.000000 0.165000
0.502875 0.000000 0.165000
0.893561 0.000000 0.165000
0.942975 0.000000 0.165000
0.956671 0.000000 0.165000
0.966846 0.000000 0.165000
0.974780 0.000000 0.165000
0.979889 0.000000 0.165000
0.983462 0.000000 0.165000
0.985369 0.000000 0.165000
0.983421 0.000000 0.165000
0.991234 0.000000 0.165000
1.000000 0.000000 0.165000
0.000000 0.008766 0.165000
0.611944 0.016066 0.165000
0.899418 0.105338 0.165000
0.881303 0.293883 0.165000
0.900135 0.369356 0.165000
0.902594 0.481607 0.165000
0.906803 0.576204 0.165000
0.912999 0.653205 0.165000
0.921892 0.704646 0.165000
0.935942 0.731417 0.165000
0.958394 0.707236 0.165000
0.983934 0.611944 0.165000
1.000000 0.502875 0.165000
0.000000 0.016579 0.165000
0.707236 0.041606 0.165000
0.846220 0.195173 0.165000
0.847973 0.404276 0.165000
0.840929 0.573869 0.165000
0.837037 0.663698 0.165000
0.815715 0.720803 0.165000
0.786128 0.739487 0.165000
0.781729 0.764504 0.165000
0.789057 0.800366 0.165000
0.804827 0.846220 0.165000
0.894663 0.899418 0.165000
1.000000 0.893561 0.165000
0.000000 0.014631 0.165000
0.731417 0.064058 0.165000
0.800366 0.210943 0.165000
0.824504 0.450245 0.165000
0.743496 0.581174 0.165000
0.725886 0.644107 0.165000
0.650419 0.689251 0.165000
0.575208 0.742947 0.165000
0.551729 0.789469 0.165000
0.549755 0.824504 0.165000
0.595724 0.847973 0.165000
0.706118 0.881303 0.165000
1.000000 0.942975 0.165000
0.000000 0.016538 0.165000
0.704646 0.078108 0.165000
0.764504 0.218271 0.165000
0.789469 0.448271 0.165000
0.690998 0.548319 0.165000
0.619283 0.628541 0.165000
0.536822 0.653023 0.165000
0.494364 0.670704 0.165000
0.451681 0.690998 0.165000
0.418826 0.743496 0.165000
0.426132 0.840930 0.165000
0.630645 0.900135 0.165000
1.000000 0.956671 0.165000
0.000000 0.020111 0.165000
0.653205 0.087001 0.165000
0.739487 0.213872 0.165000
0.742947 0.424792 0.165000
0.670704 0.505636 0.165000
0.590437 0.567995 0.165000
0.516166 0.575485 0.165000
0.432005 0.590437 0.165000
0.371460 0.619284 0.165000
0.355893 0.725886 0.165000
0.336302 0.837037 0.165000
0.518394 0.902595 0.165000
1.000000 0.966846 0.165000
0.000000 0.025220 0.165000
0.576204 0.093197 0.165000
0.720803 0.184285 0.165000
0.689251 0.349581 0.165000
0.653023 0.463178 0.165000
0.575485 0.483834 0.165000
0.500000 0.500000 0.165000
0.424515 0.516166 0.165000
0.346977 0.536822 0.165000
0.310749 0.650419 0.165000
0.279197 0.815715 0.165000
0.423797 0.906803 0.165000
1.000000 0.974780 0.165000
0.000000 0.033154 0.165000
0.481607 0.097406 0.165000
0.663698 0.162962 0.165000
0.644107 0.274114 0.165000
0.628541 0.380717 0.165000
0.567995 0.409563 0.165000
0.483834 0.424515 0.165000
0.409562 0.432005 0.165000
0.329296 0.494364 0.165000
0.257053 0.575208 0.165000
0.260512 0.786127 0.165000
0.346796 0.913000 0.165000
1.000000 0.979889 0.165000
0.000000 0.043329 0.165000
0.369356 0.099865 0.165000
0.573869 0.159070 0.165000
0.581174 0.256504 0.165000
0.548319 0.309002 0.165000
0.505636 0.329296 0.165000
0.463178 0.346977 0.165000
0.380717 0.371460 0.165000
0.309002 0.451681 0.165000
0.210531 0.551729 0.165000
0.235497 0.781729 0.165000
0.295355 0.921892 0.165000
1.000000 0.983462 0.165000
0.000000 0.057025 0.165000
0.293883 0.118697 0.165000
0.404276 0.152027 0.165000
0.450245 0.175496 0.165000
0.448271 0.210531 0.165000
0.424792 0.257053 0.165000
0.349581 0.310749 0.165000
0.274114 0.355893 0.165000
0.256504 0.418826 0.165000
0.175496 0.549755 0.165000
0.199634 0.789056 0.165000
0.268584 0.935942 0.165000
1.000000 0.985369 0.165000
0.000000 0.106439 0.165000
0.105338 0.100583 0.165000
0.195173 0.153780 0.165000
0.210944 0.199634 0.165000
0.218271 0.235497 0.165000
0.213873 0.260512 0.165000
0.184285 0.279197 0.165000
0.162963 0.336302 0.165000
0.159070 0.426132 0.165000
0.152027 0.595724 0.165000
0.153780 0.804827 0.165000
0.292765 0.958394 0.165000
1.000000 0.983421 0.165000
0.000000 0.497125 0.165000
0.016066 0.388056 0.165000
0.041606 0.292765 0.165000
0.064058 0.268584 0.165000
0.078108 0.295355 0.165000
0.087000 0.346796 0.165000
0.093197 0.423798 0.165000
0.097405 0.518394 0.165000
0.099865 0.630645 0.165000
0.118697 0.706118 0.165000
0.100582 0.894663 0.165000
0.388056 0.983934 0.165000
1.000000 0.991234 0.165000
0.000000 1.000000 0.165000
0.008766 1.000000 0.165000
0.016579 1.000000 0.165000
0.014631 1.000000 0.165000
0.016538 1.000000 0.165000
0.020111 1.000000 0.165000
0.025220 1.000000 0.165000
0.033154 1.000000 0.165000
0.043329 1.000000 0.165000
0.057025 1.000000 0.165000
0.106439 1.000000 0.165000
0.497125 1.000000 0.165000
1.000000 1.000000 0.165000
0.000000 0.000000 0.247500
0.502875 0.000000 0.247500
0.893561 0.000000 0.247500
0.942975 0.000000 0.247500
0.956671 0.000000 0.247500
0.966846 0.000000 0.247500
0.974780 0.000000 0.247500
0.979889 0.000000 0.247500
0.983462 0.000000 0.247500
0.985369 0.000000 0.247500
0.983421 0.000000 0.247500
0.991234 0.000000 0.247500
1.000000 0.000000 0.247500
0.000000 0.008766 0.247500
0.611944 0.016066 0.247500
0.899418 0.105338 0.247500
0.881303 0.293883 0.247500
0.900135 0.369356 0.247500
0.902594 0.481607 0.247500
0.906803 0.576204 0.247500
0.912999 0.653205 0.247500
0.921892 0.704646 0.247500
0.935942 0.731417 0.247500
0.958394 0.707236 0.247500
0.983934 0.611944 0.247500
1.000000 0.502875 0.247500
0.000000 0.016579 0.247500
0.707236 0.041606 0.247500
0.846220 0.195173 0.247500
0.847973 0.404276 0.247500
0.840929 0.573869 0.247500
0.837037 0.663698 0.247500
0.815715 0.720803 0.247500
0.786128 0.739487 0.247500
0.781729 0.764504 0.247500
0.789057 0.800366 0.247500
0.804827 0.846220 0.247500
0.894663 0.899418 0.247500
1.000000 0.893561 0.247500
0.000000 0.014631 0.247500
0.731417 0.064058 0.247500
0.800366 0.210943 0.247500
0.824504 0.450245 0.247500
0.743496 0.581174 0.247500
0.725886 0.644107 0.247500
0.650419 0.689251 0.247500
0.575208 0.742947 0.247500
0.551729 0.789469 0.247500
0.549755 0.824504 0.247500
0.595724 0.847973 0.247500
0.706118 0.881303 0.247500
1.000000 0.942975 0.247500
0.000000 0.016538 0.247500
0.704646 0.078108 0.247500
0.764504 0.218271 0.247500
0.789469 0.448271 0.247500
0.690998 0.548319 0.247500
0.619283 0.628541 0.247500
0.536822 0.653023 0.247500
0.494364 0.670704 0.247500
0.451681 0.690998 0.247500
0.418826 0.743496 0.247500
0.426132 0.840930 0.247500
0.630645 0.900135 0.247500
1.000000 0.956671 0.247500
0.000000 0.020111 0.247500
0.653205 0.087001 0.247500
0.739487 0.213872 0.247500
0.742947 0.424792 0.247500
0.670704 0.505636 0.247500
0.590437 0.567995 0.247500
0.516166 0.575485 0.247500
0.432005 0.590437 0.247500
0.371460 0.619284 0.247500
0.355893 0.725886 0.247500
0.336302 0.837037 0.247500
0.518394 0.902595 0.247500
1.000000 0.966846 0.247500
0.000000 0.025220 0.247500
0.576204 0.093197 0.247500
0.720803 0.184285 0.247500
0.689251 0.349581 0.247500
0.653023 0.463178 0.247500
0.575485 0.483834 0.247500
0.500000 0.500000 0.247500
0.424515 0.516166 0.247500
0.346977 0.536822 0.247500
0.310749 0.650419 0.247500
0.279197 0.815715 0.247500
0.423797 0.906803 0.247500
1.000000 0.974780 0.247500
0.000000 0.033154 0.247500
0.481607 0.097406 0.247500
0.663698 0.162962 0.247500
0.644107 0.274114 0.247500
0.628541 0.380717 0.247500
0.567995 0.409563 0.247500
0.483834 0.424515 0.247500
0.409562 0.432005 0.247500
0.329296 0.494364 0.247500
0.257053 0.575208 0.247500
0.260512 0.786127 0.247500
0.346796 0.913000 0.247500
1.000000 0.979889 0.247500
0.000000 0.043329 0.247500
0.369356 0.099865 0.247500
0.573869 0.159070 0.247500
0.581174 0.256504 0.247500
0.548319 0.309002 0.247500
0.505636 0.329296 0.247500
0.463178 0.346977 0.247500
0.380717 0.371460 0.247500
0.309002 0.451681 0.247500
0.210531 0.551729 0.247500
0.235497 0.781729 0.247500
0.295355 0.921892 0.247500
1.000000 0.983462 0.247500
0.000000 0.057025 0.247500
0.293883 0.118697 0.247500
0.404276 0.152027 0.247500
0.450245 0.175496 0.247500
0.448271 0.210531 0.247500
0.424792 0.257053 0.247500
0.349581 0.310749 0.247500
0.274114 0.355893 0.247500
0.256504 0.418826 0.247500
0.175496 0.549755 0.247500
0.199634 0.789056 0.247500
0.268584 0.935942 0.247500
1.000000 0.985369 0.247500
0.000000 0.106439 0.247500
0.105338 0.100583 0.247500
0.195173 0.153780 0.247500
0.210944 0.199634 0.247500
0.218271 0.235497 0.247500
0.213873 0.260512 0.247500
0.184285 0.279197 0.247500
0.162963 0.336302 0.247500
0.159070 0.426132 0.247500
0.152027 0.595724 0.247500
0.153780 0.804827 0.247500
0.292765 0.958394 0.247500
1.000000 0.983421 0.247500
0.000000 0.497125 0.247500
0.016066 0.388056 0.247500
0.041606 0.292765 0.247500
0.064058 0.268584 0.247500
0.078108 0.295355 0.247500
0.087000 0.346796 0.247500
0.093197 0.423798 0.247500
0.097405 0.518394 0.247500
0.099865 0.630645 0.247500
0.118697 0.706118 0.247500
0.100582 0.894663 0.247500
0.388056 0.983934 0.247500
1.000000 0.991234 0.247500
0.000000 1.000000 0.247500
0.008766 1.000000 0.247500
0.016579 1.000000 0.247500
0.014631 1.000000 0.247500
0.016538 1.000000 0.247500
0.020111 1.000000 0.247500
0.025220 1.000000 0.247500
0.033154 1.000000 0.247500
0.043329 1.000000 0.247500
0.057025 1.000000 0.247500
0.106439 1.000000 0.247500
0.497125 1.000000 0.247500
1.000000 1.000000 0.247500
0.000000 0.000000 0.330000
0.502875 0.000000 0.330000
0.893561 0.000000 0.330000
0.942975 0.000000 0.330000
0.956671 0.000000 0.330000
0.966846 0.000000 0.330000
0.974780 0.000000 0.330000
0.979889 0.000000 0.330000
0.983462 0.000000 0.330000
0.985369 0.000000 0.330000
0.983421 0.000000 0.330000
0.991234 0.000000 0.330000
1.000000 0.000000 0.330000
0.000000 0.008766 0.330000
0.611944 0.016066 0.330000
0.899418 0.105338 0.330000
0.881303 0.293883 0.330000
0.900135 0.369356 0.330000
0.902594 0.481607 0.330000
0.906803 0.576204 0.330000
0.912999 0.653205 0.330000
0.921892 0.704646 0.330000
0.935942 0.731417 0.330000
0.958394 0.707236 0.330000
0.983934 0.611944 0.330000
1.000000 0.502875 0.330000
0.000000 0.016579 0.330000
0.707236 0.041606 0.330000
0.846220 0.195173 0.330000
0.847973 0.404276 0.330000
0.840929 0.573869 0.330000
0.837037 0.663698 0.330000
0.815715 0.720803 0.330000
0.786128 0.739487 0.330000
0.781729 0.764504 0.330000
0.789057 0.800366 0.330000
0.804827 0.846220 0.330000
0.894663 0.899418 0.330000
1.000000 0.893561 0.330000
0.000000 0.014631 0.330000
0.731417 0.064058 0.330000
0.800366 0.210943 0.330000
0.824504 0.450245 0.330000
0.743496 0.581174 0.330000
0.725886 0.644107 0.330000
0.650419 0.689251 0.330000
0.575208 0.742947 0.330000
0.551729 0.789469 0.330000
0.549755 0.824504 0.330000
0.595724 0.847973 0.330000
0.706118 0.881303 0.330000
1.000000 0.942975 0.330000
0.000000 0.016538 0.330000
0.704646 0.078108 0.330000
0.764504 0.218271 0.330000
0.789469 0.448271 0.330000
0.690998 0.548319 0.330000
0.619283 0.628541 0.330000
0.536822 0.653023 0.330000
0.494364 0.670704 0.330000
0.451681 0.690998 0.330000
0.418826 0.743496 0.330000
0.426132 0.840930 0.330000