# vtk DataFile Version 2.0
Mesh for Fierro
ASCII 
DATASET UNSTRUCTURED_GRID

POINTS 845 float
0.000000 0.000000 0.000000
0.236123 0.000000 0.000000
0.424746 0.000000 0.000000
0.562381 0.000000 0.000000
0.661407 0.000000 0.000000
0.737030 0.000000 0.000000
0.796202 0.000000 0.000000
0.844055 0.000000 0.000000
0.883423 0.000000 0.000000
0.916278 0.000000 0.000000
0.947622 0.000000 0.000000
0.973540 0.000000 0.000000
1.000000 0.000000 0.000000
0.000000 0.026460 0.000000
0.232650 0.031339 0.000000
0.419561 0.042417 0.000000
0.554834 0.060428 0.000000
0.653106 0.082036 0.000000
0.726638 0.106074 0.000000
0.783599 0.132466 0.000000
0.829678 0.158552 0.000000
0.868404 0.184730 0.000000
0.903594 0.206218 0.000000
0.936227 0.221948 0.000000
0.968661 0.232650 0.000000
1.000000 0.236123 0.000000
0.000000 0.052378 0.000000
0.221948 0.063773 0.000000
0.402603 0.084374 0.000000
0.532826 0.117749 0.000000
0.627342 0.156748 0.000000
0.697942 0.200402 0.000000
0.752443 0.247672 0.000000
0.797282 0.294024 0.000000
0.836733 0.339851 0.000000
0.876520 0.375870 0.000000
0.915626 0.402603 0.000000
0.957583 0.419561 0.000000
1.000000 0.424746 0.000000
0.000000 0.083722 0.000000
0.206218 0.096406 0.000000
0.375870 0.123480 0.000000
0.498877 0.169213 0.000000
0.588130 0.221812 0.000000
0.652284 0.279833 0.000000
0.701585 0.341213 0.000000
0.744893 0.398344 0.000000
0.784307 0.453842 0.000000
0.830787 0.498877 0.000000
0.882251 0.532826 0.000000
0.939572 0.554834 0.000000
1.000000 0.562381 0.000000
0.000000 0.116577 0.000000
0.184730 0.131596 0.000000
0.339851 0.163267 0.000000
0.453842 0.215693 0.000000
0.539183 0.278399 0.000000
0.595421 0.345906 0.000000
0.638812 0.416415 0.000000
0.680704 0.480203 0.000000
0.721601 0.539183 0.000000
0.778188 0.588130 0.000000
0.843252 0.627342 0.000000
0.917964 0.653106 0.000000
1.000000 0.661407 0.000000
0.000000 0.155945 0.000000
0.158552 0.170322 0.000000
0.294024 0.202718 0.000000
0.398344 0.255107 0.000000
0.480203 0.319296 0.000000
0.531033 0.388861 0.000000
0.571187 0.461557 0.000000
0.611139 0.531033 0.000000
0.654094 0.595421 0.000000
0.720167 0.652284 0.000000
0.799598 0.697942 0.000000
0.893927 0.726638 0.000000
1.000000 0.737030 0.000000
0.000000 0.203798 0.000000
0.132466 0.216401 0.000000
0.247672 0.247557 0.000000
0.341213 0.298415 0.000000
0.416415 0.361188 0.000000
0.461557 0.428813 0.000000
0.500000 0.500000 0.000000
0.538443 0.571187 0.000000
0.583585 0.638812 0.000000
0.658787 0.701585 0.000000
0.752328 0.752443 0.000000
0.867535 0.783599 0.000000
1.000000 0.796202 0.000000
0.000000 0.262970 0.000000
0.106074 0.273362 0.000000
0.200402 0.302058 0.000000
0.279833 0.347716 0.000000
0.345906 0.404579 0.000000
0.388861 0.468967 0.000000
0.428813 0.538443 0.000000
0.468967 0.611139 0.000000
0.519797 0.680704 0.000000
0.601656 0.744893 0.000000
0.705976 0.797282 0.000000
0.841448 0.829678 0.000000
1.000000 0.844055 0.000000
0.000000 0.338593 0.000000
0.082036 0.346894 0.000000
0.156748 0.372658 0.000000
0.221812 0.411870 0.000000
0.278399 0.460817 0.000000
0.319296 0.519797 0.000000
0.361188 0.583585 0.000000
0.404579 0.654094 0.000000
0.460817 0.721601 0.000000
0.546158 0.784307 0.000000
0.660149 0.836733 0.000000
0.815271 0.868404 0.000000
1.000000 0.883423 0.000000
0.000000 0.437619 0.000000
0.060428 0.445166 0.000000
0.117749 0.467174 0.000000
0.169213 0.501123 0.000000
0.215693 0.546158 0.000000
0.255107 0.601656 0.000000
0.298415 0.658787 0.000000
0.347716 0.720167 0.000000
0.411870 0.778188 0.000000
0.501123 0.830787 0.000000
0.624130 0.876520 0.000000
0.793783 0.903594 0.000000
1.000000 0.916278 0.000000
0.000000 0.575254 0.000000
0.042417 0.580439 0.000000
0.084374 0.597397 0.000000
0.123480 0.624130 0.000000
0.163267 0.660149 0.000000
0.202718 0.705976 0.000000
0.247557 0.752328 0.000000
0.302058 0.799598 0.000000
0.372658 0.843252 0.000000
0.467174 0.882251 0.000000
0.597397 0.915626 0.000000
0.778053 0.936227 0.000000
1.000000 0.947622 0.000000
0.000000 0.763878 0.000000
0.031339 0.767351 0.000000
0.063773 0.778053 0.000000
0.096406 0.793783 0.000000
0.131596 0.815271 0.000000
0.170322 0.841448 0.000000
0.216401 0.867535 0.000000
0.273362 0.893927 0.000000
0.346894 0.917964 0.000000
0.445166 0.939572 0.000000
0.580439 0.957583 0.000000
0.767351 0.968661 0.000000
1.000000 0.973540 0.000000
0.000000 1.000000 0.000000
0.026460 1.000000 0.000000
0.052378 1.000000 0.000000
0.083722 1.000000 0.000000
0.116577 1.000000 0.000000
0.155945 1.000000 0.000000
0.203798 1.000000 0.000000
0.262970 1.000000 0.000000
0.338593 1.000000 0.000000
0.437619 1.000000 0.000000
0.575254 1.000000 0.000000
0.763878 1.000000 0.000000
1.000000 1.000000 0.000000
0.000000 0.000000 0.082500
0.236123 0.000000 0.082500
0.424746 0.000000 0.082500
0.562381 0.000000 0.082500
0.661407 0.000000 0.082500
0.737030 0.000000 0.082500
0.796202 0.000000 0.082500
0.844055 0.000000 0.082500
0.883423 0.000000 0.082500
0.916278 0.000000 0.082500
0.947622 0.000000 0.082500
0.973540 0.000000 0.082500
1.000000 0.000000 0.082500
0.000000 0.026460 0.082500
0.232650 0.031339 0.082500
0.419561 0.042417 0.082500
0.554834 0.060428 0.082500
0.653106 0.082036 0.082500
0.726638 0.106074 0.082500
0.783599 0.132466 0.082500
0.829678 0.158552 0.082500
0.868404 0.184730 0.082500
0.903594 0.206218 0.082500
0.936227 0.221948 0.082500
0.968661 0.232650 0.082500
1.000000 0.236123 0.082500
0.000000 0.052378 0.082500
0.221948 0.063773 0.082500
0.402603 0.084374 0.082500
0.532826 0.117749 0.082500
0.627342 0.156748 0.082500
0.697942 0.200402 0.082500
0.752443 0.247672 0.082500
0.797282 0.294024 0.082500
0.836733 0.339851 0.082500
0.876520 0.375870 0.082500
0.915626 0.402603 0.082500
0.957583 0.419561 0.082500
1.000000 0.424746 0.082500
0.000000 0.083722 0.082500
0.206218 0.096406 0.082500
0.375870 0.123480 0.082500
0.498877 0.169213 0.082500
0.588130 0.221812 0.082500
0.652284 0.279833 0.082500
0.701585 0.341213 0.082500
0.744893 0.398344 0.082500
0.784307 0.453842 0.082500
0.830787 0.498877 0.082500
0.882251 0.532826 0.082500
0.939572 0.554834 0.082500
1.000000 0.562381 0.082500
0.000000 0.116577 0.082500
0.184730 0.131596 0.082500
0.339851 0.163267 0.082500
0.453842 0.215693 0.082500
0.539183 0.278399 0.082500
0.595421 0.345906 0.082500
0.638812 0.416415 0.082500
0.680704 0.480203 0.082500
0.721601 0.539183 0.082500
0.778188 0.588130 0.082500
0.843252 0.627342 0.082500
0.917964 0.653106 0.082500
1.000000 0.661407 0.082500
0.000000 0.155945 0.082500
0.158552 0.170322 0.082500
0.294024 0.202718 0.082500
0.398344 0.255107 0.082500
0.480203 0.319296 0.082500
0.531033 0.388861 0.082500
0.571187 0.461557 0.082500
0.611139 0.531033 0.082500
0.654094 0.595421 0.082500
0.720167 0.652284 0.082500
0.799598 0.697942 0.082500
0.893927 0.726638 0.082500
1.000000 0.737030 0.082500
0.000000 0.203798 0.082500
0.132466 0.216401 0.082500
0.247672 0.247557 0.082500
0.341213 0.298415 0.082500
0.416415 0.361188 0.082500
0.461557 0.428813 0.082500
0.500000 0.500000 0.082500
0.538443 0.571187 0.082500
0.583585 0.638812 0.082500
0.658787 0.701585 0.082500
0.752328 0.752443 0.082500
0.867535 0.783599 0.082500
1.000000 0.796202 0.082500
0.000000 0.262970 0.082500
0.106074 0.273362 0.082500
0.200402 0.302058 0.082500
0.279833 0.347716 0.082500
0.345906 0.404579 0.082500
0.388861 0.468967 0.082500
0.428813 0.538443 0.082500
0.468967 0.611139 0.082500
0.519797 0.680704 0.082500
0.601656 0.744893 0.082500
0.705976 0.797282 0.082500
0.841448 0.829678 0.082500
1.000000 0.844055 0.082500
0.000000 0.338593 0.082500
0.082036 0.346894 0.082500
0.156748 0.372658 0.082500
0.221812 0.411870 0.082500
0.278399 0.460817 0.082500
0.319296 0.519797 0.082500
0.361188 0.583585 0.082500
0.404579 0.654094 0.082500
0.460817 0.721601 0.082500
0.546158 0.784307 0.082500
0.660149 0.836733 0.082500
0.815271 0.868404 0.082500
1.000000 0.883423 0.082500
0.000000 0.437619 0.082500
0.060428 0.445166 0.082500
0.117749 0.467174 0.082500
0.169213 0.501123 0.082500
0.215693 0.546158 0.082500
0.255107 0.601656 0.082500
0.298415 0.658787 0.082500
0.347716 0.720167 0.082500
0.411870 0.778188 0.082500
0.501123 0.830787 0.082500
0.624130 0.876520 0.082500
0.793783 0.903594 0.082500
1.000000 0.916278 0.082500
0.000000 0.575254 0.082500
0.042417 0.580439 0.082500
0.084374 0.597397 0.082500
0.123480 0.624130 0.082500
0.163267 0.660149 0.082500
0.202718 0.705976 0.082500
0.247557 0.752328 0.082500
0.302058 0.799598 0.082500
0.372658 0.843252 0.082500
0.467174 0.882251 0.082500
0.597397 0.915626 0.082500
0.778053 0.936227 0.082500
1.000000 0.947622 0.082500
0.000000 0.763878 0.082500
0.031339 0.767351 0.082500
0.063773 0.778053 0.082500
0.096406 0.793783 0.082500
0.131596 0.815271 0.082500
0.170322 0.841448 0.082500
0.216401 0.867535 0.082500
0.273362 0.893927 0.082500
0.346894 0.917964 0.082500
0.445166 0.939572 0.082500
0.580439 0.957583 0.082500
0.767351 0.968661 0.082500
1.000000 0.973540 0.082500
0.000000 1.000000 0.082500
0.026460 1.000000 0.082500
0.052378 1.000000 0.082500
0.083722 1.000000 0.082500
0.116577 1.000000 0.082500
0.155945 1.000000 0.082500
0.203798 1.000000 0.082500
0.262970 1.000000 0.082500
0.338593 1.000000 0.082500
0.437619 1.000000 0.082500
0.575254 1.000000 0.082500
0.763878 1.000000 0.082500
1.000000 1.000000 0.082500
0.000000 0.000000 0.165000
0.236123 0.000000 0.165000
0.424746 0.000000 0.165000
0.562381 0.000000 0.165000
0.661407 0.000000 0.165000
0.737030 0.000000 0.165000
0.796202 0.000000 0.165000
0.844055 0.000000 0.165000
0.883423 0.000000 0.165000
0.916278 0.000000 0.165000
0.947622 0.000000 0.165000
0.973540 0.000000 0.165000
1.000000 0.000000 0.165000
0.000000 0.026460 0.165000
0.232650 0.031339 0.165000
0.419561 0.042417 0.165000
0.554834 0.060428 0.165000
0.653106 0.082036 0.165000
0.726638 0.106074 0.165000
0.783599 0.132466 0.165000
0.829678 0.158552 0.165000
0.868404 0.184730 0.165000
0.903594 0.206218 0.165000
0.936227 0.221948 0.165000
0.968661 0.232650 0.165000
1.000000 0.236123 0.165000
0.000000 0.052378 0.165000
0.221948 0.063773 0.165000
[...]
POINT_DATA 845 
VECTORS pos float 
0.000000 0.000000 0.000000
0.236123 0.000000 0.000000
0.424746 0.000000 0.000000
0.562381 0.000000 0.000000
0.661407 0.000000 0.000000
0.737030 0.000000 0.000000
0.796202 0.000000 0.000000
0.844055 0.000000 0.000000
0.883423 0.000000 0.000000
0.916278 0.000000 0.000000
0.947622 0.000000 0.000000
0.973540 0.000000 0.000000
1.000000 0.000000 0.000000
0.000000 0.026460 0.000000
0.232650 0.031339 0.000000
0.419561 0.042417 0.000000
0.554834 0.060428 0.000000
0.653106 0.082036 0.000000
0.726638 0.106074 0.000000
0.783599 0.132466 0.000000
0.829678 0.158552 0.000000
0.868404 0.184730 0.000000
0.903594 0.206218 0.000000
0.936227 0.221948 0.000000
0.968661 0.232650 0.000000
1.000000 0.236123 0.000000
0.000000 0.052378 0.000000
0.221948 0.063773 0.000000
0.402603 0.084374 0.000000
0.532826 0.117749 0.000000
0.627342 0.156748 0.000000
0.697942 0.200402 0.000000
0.752443 0.247672 0.000000
0.797282 0.294024 0.000000
0.836733 0.339851 0.000000
0.876520 0.375870 0.000000
0.915626 0.402603 0.000000
0.957583 0.419561 0.000000
1.000000 0.424746 0.000000
0.000000 0.083722 0.000000
0.206218 0.096406 0.000000
0.375870 0.123480 0.000000
0.498877 0.169213 0.000000
0.588130 0.221812 0.000000
0.652284 0.279833 0.000000
0.701585 0.341213 0.000000
0.744893 0.398344 0.000000
0.784307 0.453842 0.000000
0.830787 0.498877 0.000000
0.882251 0.532826 0.000000
0.939572 0.554834 0.000000
1.000000 0.562381 0.000000
0.000000 0.116577 0.000000
0.184730 0.131596 0.000000
0.339851 0.163267 0.000000
0.453842 0.215693 0.000000
0.539183 0.278399 0.000000
0.595421 0.345906 0.000000
0.638812 0.416415 0.000000
0.680704 0.480203 0.000000
0.721601 0.539183 0.000000
0.778188 0.588130 0.000000
0.843252 0.627342 0.000000
0.917964 0.653106 0.000000
1.000000 0.661407 0.000000
0.000000 0.155945 0.000000
0.158552 0.170322 0.000000
0.294024 0.202718 0.000000
0.398344 0.255107 0.000000
0.480203 0.319296 0.000000
0.531033 0.388861 0.000000
0.571187 0.461557 0.000000
0.611139 0.531033 0.000000
0.654094 0.595421 0.000000
0.720167 0.652284 0.000000
0.799598 0.697942 0.000000
0.893927 0.726638 0.000000
1.000000 0.737030 0.000000
0.000000 0.203798 0.000000
0.132466 0.216401 0.000000
0.247672 0.247557 0.000000
0.341213 0.298415 0.000000
0.416415 0.361188 0.000000
0.461557 0.428813 0.000000
0.500000 0.500000 0.000000
0.538443 0.571187 0.000000
0.583585 0.638812 0.000000
0.658787 0.701585 0.000000
0.752328 0.752443 0.000000
0.867535 0.783599 0.000000
1.000000 0.796202 0.000000
0.000000 0.262970 0.000000
0.106074 0.273362 0.000000
0.200402 0.302058 0.000000
0.279833 0.347716 0.000000
0.345906 0.404579 0.000000
0.388861 0.468967 0.000000
0.428813 0.538443 0.000000
0.468967 0.611139 0.000000
0.519797 0.680704 0.000000
0.601656 0.744893 0.000000
0.705976 0.797282 0.000000
0.841448 0.829678 0.000000
1.000000 0.844055 0.000000
0.000000 0.338593 0.000000
0.082036 0.346894 0.000000
0.156748 0.372658 0.000000
0.221812 0.411870 0.000000
0.278399 0.460817 0.000000
0.319296 0.519797 0.000000
0.361188 0.583585 0.000000
0.404579 0.654094 0.000000
0.460817 0.721601 0.000000
0.546158 0.784307 0.000000
0.660149 0.836733 0.000000
0.815271 0.868404 0.000000
1.000000 0.883423 0.000000
0.000000 0.437619 0.000000
0.060428 0.445166 0.000000
0.117749 0.467174 0.000000
0.169213 0.501123 0.000000
0.215693 0.546158 0.000000
0.255107 0.601656 0.000000
0.298415 0.658787 0.000000
0.347716 0.720167 0.000000
0.411870 0.778188 0.000000
0.501123 0.830787 0.000000
0.624130 0.876520 0.000000
0.793783 0.903594 0.000000
1.000000 0.916278 0.000000
0.000000 0.575254 0.000000
0.042417 0.580439 0.000000
0.084374 0.597397 0.000000
0.123480 0.624130 0.000000
0.163267 0.660149 0.000000
0.202718 0.705976 0.000000
0.247557 0.752328 0.000000
0.302058 0.799598 0.000000
0.372658 0.843252 0.000000
0.467174 0.882251 0.000000
0.597397 0.915626 0.000000
0.778053 0.936227 0.000000
1.000000 0.947622 0.000000
0.000000 0.763878 0.000000
0.031339 0.767351 0.000000
0.063773 0.778053 0.000000
0.096406 0.793783 0.000000
0.131596 0.815271 0.000000
0.170322 0.841448 0.000000
0.216401 0.867535 0.000000
0.273362 0.893927 0.000000
0.346894 0.917964 0.000000
0.445166 0.939572 0.000000
0.580439 0.957583 0.000000
0.767351 0.968661 0.000000
1.000000 0.973540 0.000000
0.000000 1.000000 0.000000
0.026460 1.000000 0.000000
0.052378 1.000000 0.000000
0.083722 1.000000 0.000000
0.116577 1.000000 0.000000
0.155945 1.000000 0.000000
0.203798 1.000000 0.000000
0.262970 1.000000 0.000000
0.338593 1.000000 0.000000
0.437619 1.000000 0.000000
0.575254 1.000000 0.000000
0.763878 1.000000 0.000000
1.000000 1.000000 0.000000
0.000000 0.000000 0.082500
0.236123 0.000000 0.082500
0.424746 0.000000 0.082500
0.562381 0.000000 0.082500
0.661407 0.000000 0.082500
0.737030 0.000000 0.082500
0.796202 0.000000 0.082500
0.844055 0.000000 0.082500
0.883423 0.000000 0.082500
0.916278 0.000000 0.082500
0.947622 0.000000 0.082500
0.973540 0.000000 0.082500
1.000000 0.000000 0.082500
0.000000 0.026460 0.082500
0.232650 0.031339 0.082500
0.419561 0.042417 0.082500
0.554834 0.060428 0.082500
0.653106 0.082036 0.082500
0.726638 0.106074 0.082500
0.783599 0.132466 0.082500
0.829678 0.158552 0.082500
0.868404 0.184730 0.082500
0.903594 0.206218 0.082500
0.936227 0.221948 0.082500
0.968661 0.232650 0.082500
1.000000 0.236123 0.082500
0.000000 0.052378 0.082500
0.221948 0.063773 0.082500
0.402603 0.084374 0.082500
0.532826 0.117749 0.082500
0.627342 0.156748 0.082500
0.697942 0.200402 0.082500
0.752443 0.247672 0.082500
0.797282 0.294024 0.082500
0.836733 0.339851 0.082500
0.876520 0.375870 0.082500
0.915626 0.402603 0.082500
0.957583 0.419561 0.082500
1.000000 0.424746 0.082500
0.000000 0.083722 0.082500
0.206218 0.096406 0.082500
0.375870 0.123480 0.082500
0.498877 0.169213 0.082500
0.588130 0.221812 0.082500
0.652284 0.279833 0.082500
0.701585 0.341213 0.082500
0.744893 0.398344 0.082500
0.784307 0.453842 0.082500
0.830787 0.498877 0.082500
0.882251 0.532826 0.082500
0.939572 0.554834 0.082500
1.000000 0.562381 0.082500
0.000000 0.116577 0.082500
0.184730 0.131596 0.082500
0.339851 0.163267 0.082500
0.453842 0.215693 0.082500
0.539183 0.278399 0.082500
0.595421 0.345906 0.082500
0.638812 0.416415 0.082500
0.680704 0.480203 0.082500
0.721601 0.539183 0.082500
0.778188 0.588130 0.082500
0.843252 0.627342 0.082500
0.917964 0.653106 0.082500
1.000000 0.661407 0.082500
0.000000 0.155945 0.082500
0.158552 0.170322 0.082500
0.294024 0.202718 0.082500
0.398344 0.255107 0.082500
0.480203 0.319296 0.082500
0.531033 0.388861 0.082500
0.571187 0.461557 0.082500
0.611139 0.531033 0.082500
0.654094 0.595421 0.082500
0.720167 0.652284 0.082500
0.799598 0.697942 0.082500
0.893927 0.726638 0.082500
1.000000 0.737030 0.082500
0.000000 0.203798 0.082500
0.132466 0.216401 0.082500
0.247672 0.247557 0.082500
0.341213 0.298415 0.082500
0.416415 0.361188 0.082500
0.461557 0.428813 0.082500
0.500000 0.500000 0.082500
0.538443 0.571187 0.082500
0.583585 0.638812 0.082500
0.658787 0.701585 0.082500
0.752328 0.752443 0.082500
0.867535 0.783599 0.082500
1.000000 0.796202 0.082500
0.000000 0.262970 0.082500
0.106074 0.273362 0.082500
0.200402 0.302058 0.082500
0.279833 0.347716 0.082500
0.345906 0.404579 0.082500
0.388861 0.468967 0.082500
0.428813 0.538443 0.082500
0.468967 0.611139 0.082500
0.519797 0.680704 0.082500
0.601656 0.744893 0.082500
0.705976 0.797282 0.082500
0.841448 0.829678 0.082500
1.000000 0.844055 0.082500
0.000000 0.338593 0.082500
0.082036 0.346894 0.082500
0.156748 0.372658 0.082500
0.221812 0.411870 0.082500
0.278399 0.460817 0.082500
0.319296 0.519797 0.082500
0.361188 0.583585 0.082500
0.404579 0.654094 0.082500
0.460817 0.721601 0.082500
0.546158 0.784307 0.082500
0.660149 0.836733 0.082500
0.815271 0.868404 0.082500
1.000000 0.883423 0.082500
0.000000 0.437619 0.082500
0.060428 0.445166 0.082500
0.117749 0.467174 0.082500
0.169213 0.501123 0.082500
0.215693 0.546158 0.082500
0.255107 0.601656 0.082500
0.298415 0.658787 0.082500
0.347716 0.720167 0.082500
0.411870 0.778188 0.082500
0.501123 0.830787 0.082500
0.624130 0.876520 0.082500
0.793783 0.903594 0.082500
1.000000 0.916278 0.082500
0.000000 0.575254 0.082500
0.042417 0.580439 0.082500
0.084374 0.597397 0.082500
0.123480 0.624130 0.082500
0.163267 0.660149 0.082500
0.202718 0.705976 0.082500
0.247557 0.752328 0.082500
0.302058 0.799598 0.082500
0.372658 0.843252 0.082500
0.467174 0.882251 0.082500
0.597397 0.915626 0.082500
0.778053 0.936227 0.082500
1.000000 0.947622 0.082500
0.000000 0.763878 0.082500
0.031339 0.767351 0.082500
0.063773 0.778053 0.082500
0.096406 0.793783 0.082500
0.131596 0.815271 0.082500
0.170322 0.841448 0.082500
0.216401 0.867535 0.082500
0.273362 0.893927 0.082500
0.346894 0.917964 0.082500
0.445166 0.939572 0.082500
0.580439 0.957583 0.082500
0.767351 0.968661 0.082500
1.000000 0.973540 0.082500
0.000000 1.000000 0.082500
0.026460 1.000000 0.082500
0.052378 1.000000 0.082500
0.083722 1.000000 0.082500
0.116577 1.000000 0.082500
0.155945 1.000000 0.082500
0.203798 1.000000 0.082500
0.262970 1.000000 0.082500
0.338593 1.000000 0.082500
0.437619 1.000000 0.082500
0.575254 1.000000 0.082500
0.763878 1.000000 0.082500
1.000000 1.000000 0.082500
0.000000 0.000000 0.165000
0.236123 0.000000 0.165000
0.424746 0.000000 0.165000
0.562381 0.000000 0.165000
0.661407 0.000000 0.165000
0.737030 0.000000 0.165000
0.796202 0.000000 0.165000
0.844055 0.000000 0.165000
0.883423 0.000000 0.165000
0.916278 0.000000 0.165000
0.947622 0.000000 0.165000
0.973540 0.000000 0.165000
1.000000 0.000000 0.165000
0.000000 0.026460 0.165000
0.232650 0.031339 0.165000
0.419561 0.042417 0.165000
0.554834 0.060428 0.165000
0.653106 0.082036 0.165000
0.726638 0.106074 0.165000
0.783599 0.132466 0.165000
0.829678 0.158552 0.165000
0.868404 0.184730 0.165000
0.903594 0.206218 0.165000
0.936227 0.221948 0.165000
0.968661 0.232650 0.165000
1.000000 0.236123 0.165000
0.000000 0.052378 0.165000
0.221948 0.063773 0.165000
0.402603 0.084374 0.165000
0.532826 0.117749 0.165000
0.627342 0.156748 0.165000
0.697942 0.200402 0.165000
0.752443 0.247672 0.165000
0.797282 0.294024 0.165000
0.836733 0.339851 0.165000
0.876520 0.375870 0.165000
0.915626 0.402603 0.165000
0.957583 0.419561 0.165000
1.000000 0.424746 0.165000
0.000000 0.083722 0.165000
0.206218 0.096406 0.165000
0.375870 0.123480 0.165000
0.498877 0.169213 0.165000
0.588130 0.221812 0.165000
0.652284 0.279833 0.165000
0.701585 0.341213 0.165000
0.744893 0.398344 0.165000
0.784307 0.453842 0.165000
0.830787 0.498877 0.165000
0.882251 0.532826 0.165000
0.939572 0.554834 0.165000
1.000000 0.562381 0.165000
0.000000 0.116577 0.165000
0.184730 0.131596 0.165000
0.339851 0.163267 0.165000
0.453842 0.215693 0.165000
0.539183 0.278399 0.165000
0.595421 0.345906 0.165000
0.638812 0.416415 0.165000
0.680704 0.480203 0.165000
0.721601 0.539183 0.165000
0.778188 0.588130 0.165000
0.843252 0.627342 0.165000
0.917964 0.653106 0.165000
1.000000 0.661407 0.165000
0.000000 0.155945 0.165000
0.158552 0.170322 0.165000
0.294024 0.202718 0.165000
0.398344 0.255107 0.165000
0.480203 0.319296 0.165000
0.531033 0.388861 0.165000
0.571187 0.461557 0.165000
0.611139 0.531033 0.165000
0.654094 0.595421 0.165000
0.720167 0.652284 0.165000
0.799598 0.697942 0.165000
0.893927 0.726638 0.165000
1.000000 0.737030 0.165000
0.000000 0.203798 0.165000
0.132466 0.216401 0.165000
0.247672 0.247557 0.165000
0.341213 0.298415 0.165000
0.416415 0.361188 0.165000
0.461557 0.428813 0.165000
0.500000 0.500000 0.165000
0.538443 0.571187 0.165000
0.583585 0.638812 0.165000
0.658787 0.701585 0.165000
0.752328 0.752443 0.165000
0.867535 0.783599 0.165000
1.000000 0.796202 0.165000
0.000000 0.262970 0.165000
0.106074 0.273362 0.165000
0.200402 0.302058 0.165000
0.279833 0.347716 0.165000
0.345906 0.404579 0.165000
0.388861 0.468967 0.165000
0.428813 0.538443 0.165000
0.468967 0.611139 0.165000
0.519797 0.680704 0.165000
0.601656 0.744893 0.165000
0.705976 0.797282 0.165000
0.841448 0.829678 0.165000
1.000000 0.844055 0.165000
0.000000 0.338593 0.165000
0.082036 0.346894 0.165000
0.156748 0.372658 0.165000
0.221812 0.411870 0.165000
0.278399 0.460817 0.165000
0.319296 0.519797 0.165000
0.361188 0.583585 0.165000
0.404579 0.654094 0.165000
0.460817 0.721601 0.165000
0.546158 0.784307 0.165000
0.660149 0.836733 0.165000
0.815271 0.868404 0.165000
1.000000 0.883423 0.165000
0.000000 0.437619 0.165000
0.060428 0.445166 0.165000
0.117749 0.467174 0.165000
0.169213 0.501123 0.165000
0.215693 0.546158 0.165000
0.255107 0.601656 0.165000
0.298415 0.658787 0.165000
0.347716 0.720167 0.165000
0.411870 0.778188 0.165000
0.501123 0.830787 0.165000
0.624130 0.876520 0.165000
0.793783 0.903594 0.165000
1.000000 0.916278 0.165000
0.000000 0.575254 0.165000
0.042417 0.580439 0.165000
0.084374 0.597397 0.165000
0.123480 0.624130 0.165000
0.163267 0.660149 0.165000
0.202718 0.705976 0.165000
0.247557 0.752328 0.165000
0.302058 0.799598 0.165000
0.372658 0.843252 0.165000
0.467174 0.882251 0.165000
0.597397 0.915626 0.165000
0.778053 0.936227 0.165000
1.000000 0.947622 0.165000
0.000000 0.763878 0.165000
0.031339 0.767351 0.165000
0.063773 0.778053 0.165000
0.096406 0.793783 0.165000
0.131596 0.815271 0.165000
0.170322 0.841448 0.165000
0.216401 0.867535 0.165000
0.273362 0.893927 0.165000
0.346894 0.917964 0.165000
0.445166 0.939572 0.165000
0.580439 0.957583 0.165000
0.767351 0.968661 0.165000
1.000000 0.973540 0.165000
0.000000 1.000000 0.165000
0.026460 1.000000 0.165000
0.052378 1.000000 0.165000
0.083722 1.000000 0.165000
0.116577 1.000000 0.165000
0.155945 1.000000 0.165000
0.203798 1.000000 0.165000
0.262970 1.000000 0.165000
0.338593 1.000000 0.165000
0.437619 1.000000 0.165000
0.575254 1.000000 0.165000
0.763878 1.000000 0.165000
1.000000 1.000000 0.165000
0.000000 0.000000 0.247500
0.236123 0.000000 0.247500
0.424746 0.000000 0.247500
0.562381 0.000000 0.247500
0.661407 0.000000 0.247500
0.737030 0.000000 0.247500
0.796202 0.000000 0.247500
0.844055 0.000000 0.247500
0.883423 0.000000 0.247500
0.916278 0.000000 0.247500
0.947622 0.000000 0.247500
0.973540 0.000000 0.247500
1.000000 0.000000 0.247500
0.000000 0.026460 0.247500
0.232650 0.031339 0.247500
0.419561 0.042417 0.247500
0.554834 0.060428 0.247500
0.653106 0.082036 0.247500
0.726638 0.106074 0.247500
0.783599 0.132466 0.247500
0.829678 0.158552 0.247500
0.868404 0.184730 0.247500
0.903594 0.206218 0.247500
0.936227 0.221948 0.247500
0.968661 0.232650 0.247500
1.000000 0.236123 0.247500
0.000000 0.052378 0.247500
0.221948 0.063773 0.247500
0.402603 0.084374 0.247500
0.532826 0.117749 0.247500
0.627342 0.156748 0.247500
0.697942 0.200402 0.247500
0.752443 0.247672 0.247500
0.797282 0.294024 0.247500
0.836733 0.339851 0.247500
0.876520 0.375870 0.247500
0.915626 0.402603 0.247500
0.957583 0.419561 0.247500
1.000000 0.424746 0.247500
0.000000 0.083722 0.247500
0.206218 0.096406 0.247500
0.375870 0.123480 0.247500
0.498877 0.169213 0.247500
0.588130 0.221812 0.247500
0.652284 0.279833 0.247500
0.701585 0.341213 0.247500
0.744893 0.398344 0.247500
0.784307 0.453842 0.247500
0.830787 0.498877 0.247500
0.882251 0.532826 0.247500
0.939572 0.554834 0.247500
1.000000 0.562381 0.247500
0.000000 0.116577 0.247500
0.184730 0.131596 0.247500
0.339851 0.163267 0.247500
0.453842 0.215693 0.247500
0.539183 0.278399 0.247500
0.595421 0.345906 0.247500
0.638812 0.416415 0.247500
0.680704 0.480203 0.247500
0.721601 0.539183 0.247500
0.778188 0.588130 0.247500
0.843252 0.627342 0.247500
0.917964 0.653106 0.247500
1.000000 0.661407 0.247500
0.000000 0.155945 0.247500
0.158552 0.170322 0.247500
0.294024 0.202718 0.247500
0.398344 0.255107 0.247500
0.480203 0.319296 0.247500
0.531033 0.388861 0.247500
0.571187 0.461557 0.247500
0.611139 0.531033 0.247500
0.654094 0.595421 0.247500
0.720167 0.652284 0.247500
0.799598 0.697942 0.247500
0.893927 0.726638 0.247500
1.000000 0.737030 0.247500
0.000000 0.203798 0.247500
0.132466 0.216401 0.247500
0.247672 0.247557 0.247500
0.341213 0.298415 0.247500
0.416415 0.361188 0.247500
0.461557 0.428813 0.247500
0.500000 0.500000 0.247500
0.538443 0.571187 0.247500
0.583585 0.638812 0.247500
0.658787 0.701585 0.247500
0.752328 0.752443 0.247500
0.867535 0.783599 0.247500
1.000000 0.796202 0.247500
0.000000 0.262970 0.247500
0.106074 0.273362 0.247500
0.200402 0.302058 0.247500
0.279833 0.347716 0.247500
0.345906 0.404579 0.247500
0.388861 0.468967 0.247500
0.428813 0.538443 0.247500
0.468967 0.611139 0.247500
0.519797 0.680704 0.247500
0.601656 0.744893 0.247500
0.705976 0.797282 0.247500
0.841448 0.829678 0.247500
1.000000 0.844055 0.247500
0.000000 0.338593 0.247500
0.082036 0.346894 0.247500
0.156748 0.372658 0.247500
0.221812 0.411870 0.247500
0.278399 0.460817 0.247500
0.319296 0.519797 0.247500
0.361188 0.583585 0.247500
0.404579 0.654094 0.247500
0.460817 0.721601 0.247500
0.546158 0.784307 0.247500
0.660149 0.836733 0.247500
0.815271 0.868404 0.247500
1.000000 0.883423 0.247500
0.000000 0.437619 0.247500
0.060428 0.445166 0.247500
0.117749 0.467174 0.247500
0.169213 0.501123 0.247500
0.215693 0.546158 0.247500
0.255107 0.601656 0.247500
0.298415 0.658787 0.247500
0.347716 0.720167 0.247500
0.411870 0.778188 0.247500
0.501123 0.830787 0.247500
0.624130 0.876520 0.247500
0.793783 0.903594 0.247500
1.000000 0.916278 0.247500
0.000000 0.575254 0.247500
0.042417 0.580439 0.247500
0.084374 0.597397 0.247500
0.123480 0.624130 0.247500
0.163267 0.660149 0.247500
0.202718 0.705976 0.247500
0.247557 0.752328 0.247500
0.302058 0.799598 0.247500
0.372658 0.843252 0.247500
0.467174 0.882251 0.247500
0.597397 0.915626 0.247500
0.778053 0.936227 0.247500
1.000000 0.947622 0.247500
0.000000 0.763878 0.247500
0.031339 0.767351 0.247500
0.063773 0.778053 0.247500
0.096406 0.793783 0.247500
0.131596 0.815271 0.247500
0.170322 0.841448 0.247500
0.216401 0.867535 0.247500
0.273362 0.893927 0.247500
0.346894 0.917964 0.247500
0.445166 0.939572 0.247500
0.580439 0.957583 0.247500
0.767351 0.968661 0.247500
1.000000 0.973540 0.247500
0.000000 1.000000 0.247500
0.026460 1.000000 0.247500
0.052378 1.000000 0.247500
0.083722 1.000000 0.247500
0.116577 1.000000 0.247500
0.155945 1.000000 0.247500
0.203798 1.000000 0.247500
0.262970 1.000000 0.247500
0.338593 1.000000 0.247500
0.437619 1.000000 0.247500
0.575254 1.000000 0.247500
0.763878 1.000000 0.247500
1.000000 1.000000 0.247500
0.000000 0.000000 0.330000
0.236123 0.000000 0.330000
0.424746 0.000000 0.330000
0.562381 0.000000 0.330000
0.661407 0.000000 0.330000
0.737030 0.000000 0.330000
0.796202 0.000000 0.330000
0.844055 0.000000 0.330000
0.883423 0.000000 0.330000
0.916278 0.000000 0.330000
0.947622 0.000000 0.330000
0.973540 0.000000 0.330000
1.000000 0.000000 0.330000
0.000000 0.026460 0.330000
0.232650 0.031339 0.330000
0.419561 0.042417 0.330000
0.554834 0.060428 0.330000
0.653106 0.082036 0.330000
0.726638 0.106074 0.330000
0.783599 0.132466 0.330000
0.829678 0.158552 0.330000
0.868404 0.184730 0.330000
0.903594 0.206218 0.330000
0.936227 0.221948 0.330000
0.968661 0.232650 0.330000
1.000000 0.236123 0.330000
0.000000 0.052378 0.330000
0.221948 0.063773 0.330000
0.402603 0.084374 0.330000
0.532826 0.117749 0.330000
0.627342 0.156748 0.330000
0.697942 0.200402 0.330000
0.752443 0.247672 0.330000
0.797282 0.294024 0.330000
0.836733 0.339851 0.330000
0.876520 0.375870 0.330000
0.915626 0.402603 0.330000
0.957583 0.419561 0.330000
1.000000 0.424746 0.330000
0.000000 0.083722 0.330000
0.206218 0.096406 0.330000
0.375870 0.123480 0.330000
0.498877 0.169213 0.330000
0.588130 0.221812 0.330000
0.652284 0.279833 0.330000
0.701585 0.341213 0.330000
0.744893 0.398344 0.330000
0.784307 0.453842 0.330000
0.830787 0.498877 0.330000
0.882251 0.532826 0.330000
0.939572 0.554834 0.330000
1.000000 0.562381 0.330000
0.000000 0.116577 0.330000
0.184730 0.131596 0.330000
0.339851 0.163267 0.330000
0.453842 0.215693 0.330000
0.539183 0.278399 0.330000
0.595421 0.345906 0.330000
0.638812 0.416415 0.330000
0.680704 0.480203 0.330000
0.721601 0.539183 0.330000
0.778188 0.588130 0.330000
0.843252 0.627342 0.330000