# vtk DataFile Version 2.0
Mesh for Fierro
ASCII 
DATASET UNSTRUCTURED_GRID

POINTS 845 float
0.000000 0.000000 0.000000
0.527552 0.000000 0.000000
0.774736 0.000000 0.000000
0.839222 0.000000 0.000000
0.886264 0.000000 0.000000
0.912989 0.000000 0.000000
0.933599 0.000000 0.000000
0.948961 0.000000 0.000000
0.960093 0.000000 0.000000
0.969534 0.000000 0.000000
0.978437 0.000000 0.000000
0.988701 0.000000 0.000000
1.000000 0.000000 0.000000
0.000000 0.011299 0.000000
0.525008 0.019193 0.000000
0.753779 0.065561 0.000000
0.821865 0.115031 0.000000
0.865161 0.188856 0.000000
0.886689 0.256939 0.000000
0.903498 0.326157 0.000000
0.917764 0.393257 0.000000
0.930521 0.450450 0.000000
0.945577 0.489485 0.000000
0.962026 0.514940 0.000000
0.980807 0.525008 0.000000
1.000000 0.527552 0.000000
0.000000 0.021563 0.000000
0.514940 0.037974 0.000000
0.720814 0.116995 0.000000
0.798936 0.203140 0.000000
0.820943 0.327260 0.000000
0.839526 0.416806 0.000000
0.842712 0.505991 0.000000
0.840392 0.575324 0.000000
0.838607 0.633050 0.000000
0.853174 0.680288 0.000000
0.883005 0.720814 0.000000
0.934439 0.753779 0.000000
1.000000 0.774736 0.000000
0.000000 0.030466 0.000000
0.489485 0.054423 0.000000
0.680288 0.146826 0.000000
0.756220 0.254193 0.000000
0.756593 0.381947 0.000000
0.764813 0.476595 0.000000
0.742513 0.563302 0.000000
0.726357 0.635583 0.000000
0.718762 0.701014 0.000000
0.745807 0.756220 0.000000
0.796860 0.798936 0.000000
0.884969 0.821865 0.000000
1.000000 0.839222 0.000000
0.000000 0.039907 0.000000
0.450450 0.069479 0.000000
0.633050 0.161393 0.000000
0.701014 0.281238 0.000000
0.691790 0.403683 0.000000
0.681464 0.500615 0.000000
0.639666 0.574389 0.000000
0.617783 0.638422 0.000000
0.596317 0.691790 0.000000
0.618053 0.756593 0.000000
0.672740 0.820943 0.000000
0.811145 0.865162 0.000000
1.000000 0.886264 0.000000
0.000000 0.051039 0.000000
0.393257 0.082236 0.000000
0.575324 0.159608 0.000000
0.635583 0.273643 0.000000
0.638422 0.382217 0.000000
0.612886 0.472587 0.000000
0.566695 0.542896 0.000000
0.527413 0.612886 0.000000
0.499385 0.681464 0.000000
0.523405 0.764813 0.000000
0.583194 0.839526 0.000000
0.743062 0.886689 0.000000
1.000000 0.912989 0.000000
0.000000 0.066401 0.000000
0.326157 0.096502 0.000000
0.505991 0.157288 0.000000
0.563302 0.257487 0.000000
0.574389 0.360334 0.000000
0.542896 0.433305 0.000000
0.500000 0.500000 0.000000
0.457104 0.566695 0.000000
0.425611 0.639666 0.000000
0.436698 0.742513 0.000000
0.494009 0.842712 0.000000
0.673844 0.903498 0.000000
1.000000 0.933599 0.000000
0.000000 0.087011 0.000000
0.256939 0.113311 0.000000
0.416806 0.160474 0.000000
0.476595 0.235187 0.000000
0.500615 0.318536 0.000000
0.472587 0.387114 0.000000
0.433305 0.457104 0.000000
0.387114 0.527413 0.000000
0.361578 0.617783 0.000000
0.364417 0.726357 0.000000
0.424676 0.840392 0.000000
0.606744 0.917764 0.000000
1.000000 0.948961 0.000000
0.000000 0.113736 0.000000
0.188856 0.134839 0.000000
0.327260 0.179057 0.000000
0.381947 0.243407 0.000000
0.403683 0.308210 0.000000
0.382217 0.361578 0.000000
0.360334 0.425611 0.000000
0.318536 0.499385 0.000000
0.308210 0.596317 0.000000
0.298987 0.718762 0.000000
0.366949 0.838607 0.000000
0.549551 0.930521 0.000000
1.000000 0.960093 0.000000
0.000000 0.160778 0.000000
0.115031 0.178135 0.000000
0.203140 0.201064 0.000000
0.254193 0.243780 0.000000
0.281238 0.298987 0.000000
0.273643 0.364417 0.000000
0.257487 0.436698 0.000000
0.235187 0.523405 0.000000
0.243407 0.618053 0.000000
0.243780 0.745807 0.000000
0.319711 0.853174 0.000000
0.510516 0.945577 0.000000
1.000000 0.969534 0.000000
0.000000 0.225264 0.000000
0.065561 0.246221 0.000000
0.116995 0.279186 0.000000
0.146826 0.319711 0.000000
0.161393 0.366949 0.000000
0.159608 0.424676 0.000000
0.157288 0.494009 0.000000
0.160474 0.583194 0.000000
0.179057 0.672740 0.000000
0.201064 0.796860 0.000000
0.279186 0.883005 0.000000
0.485061 0.962026 0.000000
1.000000 0.978437 0.000000
0.000000 0.472449 0.000000
0.019193 0.474992 0.000000
0.037974 0.485061 0.000000
0.054423 0.510516 0.000000
0.069479 0.549551 0.000000
0.082236 0.606744 0.000000
0.096502 0.673844 0.000000
0.113311 0.743062 0.000000
0.134839 0.811145 0.000000
0.178135 0.884969 0.000000
0.246221 0.934439 0.000000
0.474992 0.980807 0.000000
1.000000 0.988701 0.000000
0.000000 1.000000 0.000000
0.011299 1.000000 0.000000
0.021563 1.000000 0.000000
0.030466 1.000000 0.000000
0.039907 1.000000 0.000000
0.051039 1.000000 0.000000
0.066401 1.000000 0.000000
0.087011 1.000000 0.000000
0.113736 1.000000 0.000000
0.160778 1.000000 0.000000
0.225264 1.000000 0.000000
0.472449 1.000000 0.000000
1.000000 1.000000 0.000000
0.000000 0.000000 0.082500
0.527552 0.000000 0.082500
0.774736 0.000000 0.082500
0.839222 0.000000 0.082500
0.886264 0.000000 0.082500
0.912989 0.000000 0.082500
0.933599 0.000000 0.082500
0.948961 0.000000 0.082500
0.960093 0.000000 0.082500
0.969534 0.000000 0.082500
0.978437 0.000000 0.082500
0.988701 0.000000 0.082500
1.000000 0.000000 0.082500
0.000000 0.011299 0.082500
0.525008 0.019193 0.082500
0.753779 0.065561 0.082500
0.821865 0.115031 0.082500
0.865161 0.188856 0.082500
0.886689 0.256939 0.082500
0.903498 0.326157 0.082500
0.917764 0.393257 0.082500
0.930521 0.450450 0.082500
0.945577 0.489485 0.082500
0.962026 0.514940 0.082500
0.980807 0.525008 0.082500
1.000000 0.527552 0.082500
0.000000 0.021563 0.082500
0.514940 0.037974 0.082500
0.720814 0.116995 0.082500
0.798936 0.203140 0.082500
0.820943 0.327260 0.082500
0.839526 0.416806 0.082500
0.842712 0.505991 0.082500
0.840392 0.575324 0.082500
0.838607 0.633050 0.082500
0.853174 0.680288 0.082500
0.883005 0.720814 0.082500
0.934439 0.753779 0.082500
1.000000 0.774736 0.082500
0.000000 0.030466 0.082500
0.489485 0.054423 0.082500
0.680288 0.146826 0.082500
0.756220 0.254193 0.082500
0.756593 0.381947 0.082500
0.764813 0.476595 0.082500
0.742513 0.563302 0.082500
0.726357 0.635583 0.082500
0.718762 0.701014 0.082500
0.745807 0.756220 0.082500
0.796860 0.798936 0.082500
0.884969 0.821865 0.082500
1.000000 0.839222 0.082500
0.000000 0.039907 0.082500
0.450450 0.069479 0.082500
0.633050 0.161393 0.082500
0.701014 0.281238 0.082500
0.691790 0.403683 0.082500
0.681464 0.500615 0.082500
0.639666 0.574389 0.082500
0.617783 0.638422 0.082500
0.596317 0.691790 0.082500
0.618053 0.756593 0.082500
0.672740 0.820943 0.082500
0.811145 0.865162 0.082500
1.000000 0.886264 0.082500
0.000000 0.051039 0.082500
0.393257 0.082236 0.082500
0.575324 0.159608 0.082500
0.635583 0.273643 0.082500
0.638422 0.382217 0.082500
0.612886 0.472587 0.082500
0.566695 0.542896 0.082500
0.527413 0.612886 0.082500
0.499385 0.681464 0.082500
0.523405 0.764813 0.082500
0.583194 0.839526 0.082500
0.743062 0.886689 0.082500
1.000000 0.912989 0.082500
0.000000 0.066401 0.082500
0.326157 0.096502 0.082500
0.505991 0.157288 0.082500
0.563302 0.257487 0.082500
0.574389 0.360334 0.082500
0.542896 0.433305 0.082500
0.500000 0.500000 0.082500
0.457104 0.566695 0.082500
0.425611 0.639666 0.082500
0.436698 0.742513 0.082500
0.494009 0.842712 0.082500
0.673844 0.903498 0.082500
1.000000 0.933599 0.082500
0.000000 0.087011 0.082500
0.256939 0.113311 0.082500
0.416806 0.160474 0.082500
0.476595 0.235187 0.082500
0.500615 0.318536 0.082500
0.472587 0.387114 0.082500
0.433305 0.457104 0.082500
0.387114 0.527413 0.082500
0.361578 0.617783 0.082500
0.364417 0.726357 0.082500
0.424676 0.840392 0.082500
0.606744 0.917764 0.082500
1.000000 0.948961 0.082500
0.000000 0.113736 0.082500
0.188856 0.134839 0.082500
0.327260 0.179057 0.082500
0.381947 0.243407 0.082500
0.403683 0.308210 0.082500
0.382217 0.361578 0.082500
0.360334 0.425611 0.082500
0.318536 0.499385 0.082500
0.308210 0.596317 0.082500
0.298987 0.718762 0.082500
0.366949 0.838607 0.082500
0.549551 0.930521 0.082500
1.000000 0.960093 0.082500
0.000000 0.160778 0.082500
0.115031 0.178135 0.082500
0.203140 0.201064 0.082500
0.254193 0.243780 0.082500
0.281238 0.298987 0.082500
0.273643 0.364417 0.082500
0.257487 0.436698 0.082500
0.235187 0.523405 0.082500
0.243407 0.618053 0.082500
0.243780 0.745807 0.082500
0.319711 0.853174 0.082500
0.510516 0.945577 0.082500
1.000000 0.969534 0.082500
0.000000 0.225264 0.082500
0.065561 0.246221 0.082500
0.116995 0.279186 0.082500
0.146826 0.319711 0.082500
0.161393 0.366949 0.082500
0.159608 0.424676 0.082500
0.157288 0.494009 0.082500
0.160474 0.583194 0.082500
0.179057 0.672740 0.082500
0.201064 0.796860 0.082500
0.279186 0.883005 0.082500
0.485061 0.962026 0.082500
1.000000 0.978437 0.082500
0.000000 0.472449 0.082500
0.019193 0.474992 0.082500
0.037974 0.485061 0.082500
0.054423 0.510516 0.082500
0.069479 0.549551 0.082500
0.082236 0.606744 0.082500
0.096502 0.673844 0.082500
0.113311 0.743062 0.082500
0.134839 0.811145 0.082500
0.178135 0.884969 0.082500
0.246221 0.934439 0.082500
0.474992 0.980807 0.082500
1.000000 0.988701 0.082500
0.000000 1.000000 0.082500
0.011299 1.000000 0.082500
0.021563 1.000000 0.082500
0.030466 1.000000 0.082500
0.039907 1.000000 0.082500
0.051039 1.000000 0.082500
0.066401 1.000000 0.082500
0.087011 1.000000 0.082500
0.113736 1.000000 0.082500
0.160778 1.000000 0.082500
0.225264 1.000000 0.082500
0.472449 1.000000 0.082500
1.000000 1.000000 0.082500
0.000000 0.000000 0.165000
0.527552 0.000000 0.165000
0.774736 0.000000 0.165000
0.839222 0.000000 0.165000
0.886264 0.000000 0.165000
0.912989 0.000000 0.165000
0.933599 0.000000 0.165000
0.948961 0.000000 0.165000
0.960093 0.000000 0.165000
0.969534 0.000000 0.165000
0.978437 0.000000 0.165000
0.988701 0.000000 0.165000
1.000000 0.000000 0.165000
0.000000 0.011299 0.165000
0.525008 0.019193 0.165000
0.753779 0.065561 0.165000
0.821865 0.115031 0.165000
0.865161 0.188856 0.165000
0.886689 0.256939 0.165000
0.903498 0.326157 0.165000
0.917764 0.393257 0.165000
0.930521 0.450450 0.165000
0.945577 0.489485 0.165000
0.962026 0.514940 0.165000
0.980807 0.525008 0.165000
1.000000 0.527552 0.165000
0.000000 0.021563 0.165000
0.514940 0.037974 0.165000
[...]
POINT_DATA 845 
VECTORS pos float 
0.000000 0.000000 0.000000
0.527552 0.000000 0.000000
0.774736 0.000000 0.000000
0.839222 0.000000 0.000000
0.886264 0.000000 0.000000
0.912989 0.000000 0.000000
0.933599 0.000000 0.000000
0.948961 0.000000 0.000000
0.960093 0.000000 0.000000
0.969534 0.000000 0.000000
0.978437 0.000000 0.000000
0.988701 0.000000 0.000000
1.000000 0.000000 0.000000
0.000000 0.011299 0.000000
0.525008 0.019193 0.000000
0.753779 0.065561 0.000000
0.821865 0.115031 0.000000
0.865161 0.188856 0.000000
0.886689 0.256939 0.000000
0.903498 0.326157 0.000000
0.917764 0.393257 0.000000
0.930521 0.450450 0.000000
0.945577 0.489485 0.000000
0.962026 0.514940 0.000000
0.980807 0.525008 0.000000
1.000000 0.527552 0.000000
0.000000 0.021563 0.000000
0.514940 0.037974 0.000000
0.720814 0.116995 0.000000
0.798936 0.203140 0.000000
0.820943 0.327260 0.000000
0.839526 0.416806 0.000000
0.842712 0.505991 0.000000
0.840392 0.575324 0.000000
0.838607 0.633050 0.000000
0.853174 0.680288 0.000000
0.883005 0.720814 0.000000
0.934439 0.753779 0.000000
1.000000 0.774736 0.000000
0.000000 0.030466 0.000000
0.489485 0.054423 0.000000
0.680288 0.146826 0.000000
0.756220 0.254193 0.000000
0.756593 0.381947 0.000000
0.764813 0.476595 0.000000
0.742513 0.563302 0.000000
0.726357 0.635583 0.000000
0.718762 0.701014 0.000000
0.745807 0.756220 0.000000
0.796860 0.798936 0.000000
0.884969 0.821865 0.000000
1.000000 0.839222 0.000000
0.000000 0.039907 0.000000
0.450450 0.069479 0.000000
0.633050 0.161393 0.000000
0.701014 0.281238 0.000000
0.691790 0.403683 0.000000
0.681464 0.500615 0.000000
0.639666 0.574389 0.000000
0.617783 0.638422 0.000000
0.596317 0.691790 0.000000
0.618053 0.756593 0.000000
0.672740 0.820943 0.000000
0.811145 0.865162 0.000000
1.000000 0.886264 0.000000
0.000000 0.051039 0.000000
0.393257 0.082236 0.000000
0.575324 0.159608 0.000000
0.635583 0.273643 0.000000
0.638422 0.382217 0.000000
0.612886 0.472587 0.000000
0.566695 0.542896 0.000000
0.527413 0.612886 0.000000
0.499385 0.681464 0.000000
0.523405 0.764813 0.000000
0.583194 0.839526 0.000000
0.743062 0.886689 0.000000
1.000000 0.912989 0.000000
0.000000 0.066401 0.000000
0.326157 0.096502 0.000000
0.505991 0.157288 0.000000
0.563302 0.257487 0.000000
0.574389 0.360334 0.000000
0.542896 0.433305 0.000000
0.500000 0.500000 0.000000
0.457104 0.566695 0.000000
0.425611 0.639666 0.000000
0.436698 0.742513 0.000000
0.494009 0.842712 0.000000
0.673844 0.903498 0.000000
1.000000 0.933599 0.000000
0.000000 0.087011 0.000000
0.256939 0.113311 0.000000
0.416806 0.160474 0.000000
0.476595 0.235187 0.000000
0.500615 0.318536 0.000000
0.472587 0.387114 0.000000
0.433305 0.457104 0.000000
0.387114 0.527413 0.000000
0.361578 0.617783 0.000000
0.364417 0.726357 0.000000
0.424676 0.840392 0.000000
0.606744 0.917764 0.000000
1.000000 0.948961 0.000000
0.000000 0.113736 0.000000
0.188856 0.134839 0.000000
0.327260 0.179057 0.000000
0.381947 0.243407 0.000000
0.403683 0.308210 0.000000
0.382217 0.361578 0.000000
0.360334 0.425611 0.000000
0.318536 0.499385 0.000000
0.308210 0.596317 0.000000
0.298987 0.718762 0.000000
0.366949 0.838607 0.000000
0.549551 0.930521 0.000000
1.000000 0.960093 0.000000
0.000000 0.160778 0.000000
0.115031 0.178135 0.000000
0.203140 0.201064 0.000000
0.254193 0.243780 0.000000
0.281238 0.298987 0.000000
0.273643 0.364417 0.000000
0.257487 0.436698 0.000000
0.235187 0.523405 0.000000
0.243407 0.618053 0.000000
0.243780 0.745807 0.000000
0.319711 0.853174 0.000000
0.510516 0.945577 0.000000
1.000000 0.969534 0.000000
0.000000 0.225264 0.000000
0.065561 0.246221 0.000000
0.116995 0.279186 0.000000
0.146826 0.319711 0.000000
0.161393 0.366949 0.000000
0.159608 0.424676 0.000000
0.157288 0.494009 0.000000
0.160474 0.583194 0.000000
0.179057 0.672740 0.000000
0.201064 0.796860 0.000000
0.279186 0.883005 0.000000
0.485061 0.962026 0.000000
1.000000 0.978437 0.000000
0.000000 0.472449 0.000000
0.019193 0.474992 0.000000
0.037974 0.485061 0.000000
0.054423 0.510516 0.000000
0.069479 0.549551 0.000000
0.082236 0.606744 0.000000
0.096502 0.673844 0.000000
0.113311 0.743062 0.000000
0.134839 0.811145 0.000000
0.178135 0.884969 0.000000
0.246221 0.934439 0.000000
0.474992 0.980807 0.000000
1.000000 0.988701 0.000000
0.000000 1.000000 0.000000
0.011299 1.000000 0.000000
0.021563 1.000000 0.000000
0.030466 1.000000 0.000000
0.039907 1.000000 0.000000
0.051039 1.000000 0.000000
0.066401 1.000000 0.000000
0.087011 1.000000 0.000000
0.113736 1.000000 0.000000
0.160778 1.000000 0.000000
0.225264 1.000000 0.000000
0.472449 1.000000 0.000000
1.000000 1.000000 0.000000
0.000000 0.000000 0.082500
0.527552 0.000000 0.082500
0.774736 0.000000 0.082500
0.839222 0.000000 0.082500
0.886264 0.000000 0.082500
0.912989 0.000000 0.082500
0.933599 0.000000 0.082500
0.948961 0.000000 0.082500
0.960093 0.000000 0.082500
0.969534 0.000000 0.082500
0.978437 0.000000 0.082500
0.988701 0.000000 0.082500
1.000000 0.000000 0.082500
0.000000 0.011299 0.082500
0.525008 0.019193 0.082500
0.753779 0.065561 0.082500
0.821865 0.115031 0.082500
0.865161 0.188856 0.082500
0.886689 0.256939 0.082500
0.903498 0.326157 0.082500
0.917764 0.393257 0.082500
0.930521 0.450450 0.082500
0.945577 0.489485 0.082500
0.962026 0.514940 0.082500
0.980807 0.525008 0.082500
1.000000 0.527552 0.082500
0.000000 0.021563 0.082500
0.514940 0.037974 0.082500
0.720814 0.116995 0.082500
0.798936 0.203140 0.082500
0.820943 0.327260 0.082500
0.839526 0.416806 0.082500
0.842712 0.505991 0.082500
0.840392 0.575324 0.082500
0.838607 0.633050 0.082500
0.853174 0.680288 0.082500
0.883005 0.720814 0.082500
0.934439 0.753779 0.082500
1.000000 0.774736 0.082500
0.000000 0.030466 0.082500
0.489485 0.054423 0.082500
0.680288 0.146826 0.082500
0.756220 0.254193 0.082500
0.756593 0.381947 0.082500
0.764813 0.476595 0.082500
0.742513 0.563302 0.082500
0.726357 0.635583 0.082500
0.718762 0.701014 0.082500
0.745807 0.756220 0.082500
0.796860 0.798936 0.082500
0.884969 0.821865 0.082500
1.000000 0.839222 0.082500
0.000000 0.039907 0.082500
0.450450 0.069479 0.082500
0.633050 0.161393 0.082500
0.701014 0.281238 0.082500
0.691790 0.403683 0.082500
0.681464 0.500615 0.082500
0.639666 0.574389 0.082500
0.617783 0.638422 0.082500
0.596317 0.691790 0.082500
0.618053 0.756593 0.082500
0.672740 0.820943 0.082500
0.811145 0.865162 0.082500
1.000000 0.886264 0.082500
0.000000 0.051039 0.082500
0.393257 0.082236 0.082500
0.575324 0.159608 0.082500
0.635583 0.273643 0.082500
0.638422 0.382217 0.082500
0.612886 0.472587 0.082500
0.566695 0.542896 0.082500
0.527413 0.612886 0.082500
0.499385 0.681464 0.082500
0.523405 0.764813 0.082500
0.583194 0.839526 0.082500
0.743062 0.886689 0.082500
1.000000 0.912989 0.082500
0.000000 0.066401 0.082500
0.326157 0.096502 0.082500
0.505991 0.157288 0.082500
0.563302 0.257487 0.082500
0.574389 0.360334 0.082500
0.542896 0.433305 0.082500
0.500000 0.500000 0.082500
0.457104 0.566695 0.082500
0.425611 0.639666 0.082500
0.436698 0.742513 0.082500
0.494009 0.842712 0.082500
0.673844 0.903498 0.082500
1.000000 0.933599 0.082500
0.000000 0.087011 0.082500
0.256939 0.113311 0.082500
0.416806 0.160474 0.082500
0.476595 0.235187 0.082500
0.500615 0.318536 0.082500
0.472587 0.387114 0.082500
0.433305 0.457104 0.082500
0.387114 0.527413 0.082500
0.361578 0.617783 0.082500
0.364417 0.726357 0.082500
0.424676 0.840392 0.082500
0.606744 0.917764 0.082500
1.000000 0.948961 0.082500
0.000000 0.113736 0.082500
0.188856 0.134839 0.082500
0.327260 0.179057 0.082500
0.381947 0.243407 0.082500
0.403683 0.308210 0.082500
0.382217 0.361578 0.082500
0.360334 0.425611 0.082500
0.318536 0.499385 0.082500
0.308210 0.596317 0.082500
0.298987 0.718762 0.082500
0.366949 0.838607 0.082500
0.549551 0.930521 0.082500
1.000000 0.960093 0.082500
0.000000 0.160778 0.082500
0.115031 0.178135 0.082500
0.203140 0.201064 0.082500
0.254193 0.243780 0.082500
0.281238 0.298987 0.082500
0.273643 0.364417 0.082500
0.257487 0.436698 0.082500
0.235187 0.523405 0.082500
0.243407 0.618053 0.082500
0.243780 0.745807 0.082500
0.319711 0.853174 0.082500
0.510516 0.945577 0.082500
1.000000 0.969534 0.082500
0.000000 0.225264 0.082500
0.065561 0.246221 0.082500
0.116995 0.279186 0.082500
0.146826 0.319711 0.082500
0.161393 0.366949 0.082500
0.159608 0.424676 0.082500
0.157288 0.494009 0.082500
0.160474 0.583194 0.082500
0.179057 0.672740 0.082500
0.201064 0.796860 0.082500
0.279186 0.883005 0.082500
0.485061 0.962026 0.082500
1.000000 0.978437 0.082500
0.000000 0.472449 0.082500
0.019193 0.474992 0.082500
0.037974 0.485061 0.082500
0.054423 0.510516 0.082500
0.069479 0.549551 0.082500
0.082236 0.606744 0.082500
0.096502 0.673844 0.082500
0.113311 0.743062 0.082500
0.134839 0.811145 0.082500
0.178135 0.884969 0.082500
0.246221 0.934439 0.082500
0.474992 0.980807 0.082500
1.000000 0.988701 0.082500
0.000000 1.000000 0.082500
0.011299 1.000000 0.082500
0.021563 1.000000 0.082500
0.030466 1.000000 0.082500
0.039907 1.000000 0.082500
0.051039 1.000000 0.082500
0.066401 1.000000 0.082500
0.087011 1.000000 0.082500
0.113736 1.000000 0.082500
0.160778 1.000000 0.082500
0.225264 1.000000 0.082500
0.472449 1.000000 0.082500
1.000000 1.000000 0.082500
0.000000 0.000000 0.165000
0.527552 0.000000 0.165000
0.774736 0.000000 0.165000
0.839222 0.000000 0.165000
0.886264 0.000000 0.165000
0.912989 0.000000 0.165000
0.933599 0.000000 0.165000
0.948961 0.000000 0.165000
0.960093 0.000000 0.165000
0.969534 0.000000 0.165000
0.978437 0.000000 0.165000
0.988701 0.000000 0.165000
1.000000 0.000000 0.165000
0.000000 0.011299 0.165000
0.525008 0.019193 0.165000
0.753779 0.065561 0.165000
0.821865 0.115031 0.165000
0.865161 0.188856 0.165000
0.886689 0.256939 0.165000
0.903498 0.326157 0.165000
0.917764 0.393257 0.165000
0.930521 0.450450 0.165000
0.945577 0.489485 0.165000
0.962026 0.514940 0.165000
0.980807 0.525008 0.165000
1.000000 0.527552 0.165000
0.000000 0.021563 0.165000
0.514940 0.037974 0.165000
0.720814 0.116995 0.165000
0.798936 0.203140 0.165000
0.820943 0.327260 0.165000
0.839526 0.416806 0.165000
0.842712 0.505991 0.165000
0.840392 0.575324 0.165000
0.838607 0.633050 0.165000
0.853174 0.680288 0.165000
0.883005 0.720814 0.165000
0.934439 0.753779 0.165000
1.000000 0.774736 0.165000
0.000000 0.030466 0.165000
0.489485 0.054423 0.165000
0.680288 0.146826 0.165000
0.756220 0.254193 0.165000
0.756593 0.381947 0.165000
0.764813 0.476595 0.165000
0.742513 0.563302 0.165000
0.726357 0.635583 0.165000
0.718762 0.701014 0.165000
0.745807 0.756220 0.165000
0.796860 0.798936 0.165000
0.884969 0.821865 0.165000
1.000000 0.839222 0.165000
0.000000 0.039907 0.165000
0.450450 0.069479 0.165000
0.633050 0.161393 0.165000
0.701014 0.281238 0.165000
0.691790 0.403683 0.165000
0.681464 0.500615 0.165000
0.639666 0.574389 0.165000
0.617783 0.638422 0.165000
0.596317 0.691790 0.165000
0.618053 0.756593 0.165000
0.672740 0.820943 0.165000
0.811145 0.865162 0.165000
1.000000 0.886264 0.165000
0.000000 0.051039 0.165000
0.393257 0.082236 0.165000
0.575324 0.159608 0.165000
0.635583 0.273643 0.165000
0.638422 0.382217 0.165000
0.612886 0.472587 0.165000
0.566695 0.542896 0.165000
0.527413 0.612886 0.165000
0.499385 0.681464 0.165000
0.523405 0.764813 0.165000
0.583194 0.839526 0.165000
0.743062 0.886689 0.165000
1.000000 0.912989 0.165000
0.000000 0.066401 0.165000
0.326157 0.096502 0.165000
0.505991 0.157288 0.165000
0.563302 0.257487 0.165000
0.574389 0.360334 0.165000
0.542896 0.433305 0.165000
0.500000 0.500000 0.165000
0.457104 0.566695 0.165000
0.425611 0.639666 0.165000
0.436698 0.742513 0.165000
0.494009 0.842712 0.165000
0.673844 0.903498 0.165000
1.000000 0.933599 0.165000
0.000000 0.087011 0.165000
0.256939 0.113311 0.165000
0.416806 0.160474 0.165000
0.476595 0.235187 0.165000
0.500615 0.318536 0.165000
0.472587 0.387114 0.165000
0.433305 0.457104 0.165000
0.387114 0.527413 0.165000
0.361578 0.617783 0.165000
0.364417 0.726357 0.165000
0.424676 0.840392 0.165000
0.606744 0.917764 0.165000
1.000000 0.948961 0.165000
0.000000 0.113736 0.165000
0.188856 0.134839 0.165000
0.327260 0.179057 0.165000
0.381947 0.243407 0.165000
0.403683 0.308210 0.165000
0.382217 0.361578 0.165000
0.360334 0.425611 0.165000
0.318536 0.499385 0.165000
0.308210 0.596317 0.165000
0.298987 0.718762 0.165000
0.366949 0.838607 0.165000
0.549551 0.930521 0.165000
1.000000 0.960093 0.165000
0.000000 0.160778 0.165000
0.115031 0.178135 0.165000
0.203140 0.201064 0.165000
0.254193 0.243780 0.165000
0.281238 0.298987 0.165000
0.273643 0.364417 0.165000
0.257487 0.436698 0.165000
0.235187 0.523405 0.165000
0.243407 0.618053 0.165000
0.243780 0.745807 0.165000
0.319711 0.853174 0.165000
0.510516 0.945577 0.165000
1.000000 0.969534 0.165000
0.000000 0.225264 0.165000
0.065561 0.246221 0.165000
0.116995 0.279186 0.165000
0.146826 0.319711 0.165000
0.161393 0.366949 0.165000
0.159608 0.424676 0.165000
0.157288 0.494009 0.165000
0.160474 0.583194 0.165000
0.179057 0.672740 0.165000
0.201064 0.796860 0.165000
0.279186 0.883005 0.165000
0.485061 0.962026 0.165000
1.000000 0.978437 0.165000
0.000000 0.472449 0.165000
0.019193 0.474992 0.165000
0.037974 0.485061 0.165000
0.054423 0.510516 0.165000
0.069479 0.549551 0.165000
0.082236 0.606744 0.165000
0.096502 0.673844 0.165000
0.113311 0.743062 0.165000
0.134839 0.811145 0.165000
0.178135 0.884969 0.165000
0.246221 0.934439 0.165000
0.474992 0.980807 0.165000
1.000000 0.988701 0.165000
0.000000 1.000000 0.165000
0.011299 1.000000 0.165000
0.021563 1.000000 0.165000
0.030466 1.000000 0.165000
0.039907 1.000000 0.165000
0.051039 1.000000 0.165000
0.066401 1.000000 0.165000
0.087011 1.000000 0.165000
0.113736 1.000000 0.165000
0.160778 1.000000 0.165000
0.225264 1.000000 0.165000
0.472449 1.000000 0.165000
1.000000 1.000000 0.165000
0.000000 0.000000 0.247500
0.527552 0.000000 0.247500
0.774736 0.000000 0.247500
0.839222 0.000000 0.247500
0.886264 0.000000 0.247500
0.912989 0.000000 0.247500
0.933599 0.000000 0.247500
0.948961 0.000000 0.247500
0.960093 0.000000 0.247500
0.969534 0.000000 0.247500
0.978437 0.000000 0.247500
0.988701 0.000000 0.247500
1.000000 0.000000 0.247500
0.000000 0.011299 0.247500
0.525008 0.019193 0.247500
0.753779 0.065561 0.247500
0.821865 0.115031 0.247500
0.865161 0.188856 0.247500
0.886689 0.256939 0.247500
0.903498 0.326157 0.247500
0.917764 0.393257 0.247500
0.930521 0.450450 0.247500
0.945577 0.489485 0.247500
0.962026 0.514940 0.247500
0.980807 0.525008 0.247500
1.000000 0.527552 0.247500
0.000000 0.021563 0.247500
0.514940 0.037974 0.247500
0.720814 0.116995 0.247500
0.798936 0.203140 0.247500
0.820943 0.327260 0.247500
0.839526 0.416806 0.247500
0.842712 0.505991 0.247500
0.840392 0.575324 0.247500
0.838607 0.633050 0.247500
0.853174 0.680288 0.247500
0.883005 0.720814 0.247500
0.934439 0.753779 0.247500
1.000000 0.774736 0.247500
0.000000 0.030466 0.247500
0.489485 0.054423 0.247500
0.680288 0.146826 0.247500
0.756220 0.254193 0.247500
0.756593 0.381947 0.247500
0.764813 0.476595 0.247500
0.742513 0.563302 0.247500
0.726357 0.635583 0.247500
0.718762 0.701014 0.247500
0.745807 0.756220 0.247500
0.796860 0.798936 0.247500
0.884969 0.821865 0.247500
1.000000 0.839222 0.247500
0.000000 0.039907 0.247500
0.450450 0.069479 0.247500
0.633050 0.161393 0.247500
0.701014 0.281238 0.247500
0.691790 0.403683 0.247500
0.681464 0.500615 0.247500
0.639666 0.574389 0.247500
0.617783 0.638422 0.247500
0.596317 0.691790 0.247500
0.618053 0.756593 0.247500
0.672740 0.820943 0.247500
0.811145 0.865162 0.247500
1.000000 0.886264 0.247500
0.000000 0.051039 0.247500
0.393257 0.082236 0.247500
0.575324 0.159608 0.247500
0.635583 0.273643 0.247500
0.638422 0.382217 0.247500
0.612886 0.472587 0.247500
0.566695 0.542896 0.247500
0.527413 0.612886 0.247500
0.499385 0.681464 0.247500
0.523405 0.764813 0.247500
0.583194 0.839526 0.247500
0.743062 0.886689 0.247500
1.000000 0.912989 0.247500
0.000000 0.066401 0.247500
0.326157 0.096502 0.247500
0.505991 0.157288 0.247500
0.563302 0.257487 0.247500
0.574389 0.360334 0.247500
0.542896 0.433305 0.247500
0.500000 0.500000 0.247500
0.457104 0.566695 0.247500
0.425611 0.639666 0.247500
0.436698 0.742513 0.247500
0.494009 0.842712 0.247500
0.673844 0.903498 0.247500
1.000000 0.933599 0.247500
0.000000 0.087011 0.247500
0.256939 0.113311 0.247500
0.416806 0.160474 0.247500
0.476595 0.235187 0.247500
0.500615 0.318536 0.247500
0.472587 0.387114 0.247500
0.433305 0.457104 0.247500
0.387114 0.527413 0.247500
0.361578 0.617783 0.247500
0.364417 0.726357 0.247500
0.424676 0.840392 0.247500
0.606744 0.917764 0.247500
1.000000 0.948961 0.247500
0.000000 0.113736 0.247500
0.188856 0.134839 0.247500
0.327260 0.179057 0.247500
0.381947 0.243407 0.247500
0.403683 0.308210 0.247500
0.382217 0.361578 0.247500
0.360334 0.425611 0.247500
0.318536 0.499385 0.247500
0.308210 0.596317 0.247500
0.298987 0.718762 0.247500
0.366949 0.838607 0.247500
0.549551 0.930521 0.247500
1.000000 0.960093 0.247500
0.000000 0.160778 0.247500
0.115031 0.178135 0.247500
0.203140 0.201064 0.247500
0.254193 0.243780 0.247500
0.281238 0.298987 0.247500
0.273643 0.364417 0.247500
0.257487 0.436698 0.247500
0.235187 0.523405 0.247500
0.243407 0.618053 0.247500
0.243780 0.745807 0.247500
0.319711 0.853174 0.247500
0.510516 0.945577 0.247500
1.000000 0.969534 0.247500
0.000000 0.225264 0.247500
0.065561 0.246221 0.247500
0.116995 0.279186 0.247500
0.146826 0.319711 0.247500
0.161393 0.366949 0.247500
0.159608 0.424676 0.247500
0.157288 0.494009 0.247500
0.160474 0.583194 0.247500
0.179057 0.672740 0.247500
0.201064 0.796860 0.247500
0.279186 0.883005 0.247500
0.485061 0.962026 0.247500
1.000000 0.978437 0.247500
0.000000 0.472449 0.247500
0.019193 0.474992 0.247500
0.037974 0.485061 0.247500
0.054423 0.510516 0.247500
0.069479 0.549551 0.247500
0.082236 0.606744 0.247500
0.096502 0.673844 0.247500
0.113311 0.743062 0.247500
0.134839 0.811145 0.247500
0.178135 0.884969 0.247500
0.246221 0.934439 0.247500
0.474992 0.980807 0.247500
1.000000 0.988701 0.247500
0.000000 1.000000 0.247500
0.011299 1.000000 0.247500
0.021563 1.000000 0.247500
0.030466 1.000000 0.247500
0.039907 1.000000 0.247500
0.051039 1.000000 0.247500
0.066401 1.000000 0.247500
0.087011 1.000000 0.247500
0.113736 1.000000 0.247500
0.160778 1.000000 0.247500
0.225264 1.000000 0.247500
0.472449 1.000000 0.247500
1.000000 1.000000 0.247500
0.000000 0.000000 0.330000
0.527552 0.000000 0.330000
0.774736 0.000000 0.330000
0.839222 0.000000 0.330000
0.886264 0.000000 0.330000
0.912989 0.000000 0.330000
0.933599 0.000000 0.330000
0.948961 0.000000 0.330000
0.960093 0.000000 0.330000
0.969534 0.000000 0.330000
0.978437 0.000000 0.330000
0.988701 0.000000 0.330000
1.000000 0.000000 0.330000
0.000000 0.011299 0.330000
0.525008 0.019193 0.330000
0.753779 0.065561 0.330000
0.821865 0.115031 0.330000
0.865161 0.188856 0.330000
0.886689 0.256939 0.330000
0.903498 0.326157 0.330000
0.917764 0.393257 0.330000
0.930521 0.450450 0.330000
0.945577 0.489485 0.330000
0.962026 0.514940 0.330000
0.980807 0.525008 0.330000
1.000000 0.527552 0.330000
0.000000 0.021563 0.330000
0.514940 0.037974 0.330000
0.720814 0.116995 0.330000
0.798936 0.203140 0.330000
0.820943 0.327260 0.330000
0.839526 0.416806 0.330000
0.842712 0.505991 0.330000
0.840392 0.575324 0.330000
0.838607 0.633050 0.330000
0.853174 0.680288 0.330000
0.883005 0.720814 0.330000
0.934439 0.753779 0.330000
1.000000 0.774736 0.330000
0.000000 0.030466 0.330000
0.489485 0.054423 0.330000
0.680288 0.146826 0.330000
0.756220 0.254193 0.330000
0.756593 0.381947 0.330000
0.764813 0.476595 0.330000
0.742513 0.563302 0.330000
0.726357 0.635583 0.330000
0.718762 0.701014 0.330000
0.745807 0.756220 0.330000
0.796860 0.798936 0.330000
0.884969 0.821865 0.330000
1.000000 0.839222 0.330000
0.000000 0.039907 0.330000
0.450450 0.069479 0.330000
0.633050 0.161393 0.330000
0.701014 0.281238 0.330000
0.691790 0.403683 0.330000
0.681464 0.500615 0.330000
0.639666 0.574389 0.330000
0.617783 0.638422 0.330000
0.596317 0.691790 0.330000
0.618053 0.756593 0.330000
0.672740 0.820943 0.330000