# vtk DataFile Version 2.0
Mesh for Fierro
ASCII 
DATASET UNSTRUCTURED_GRID

POINTS 845 float
0.000000 0.000000 0.000000
0.103169 0.000000 0.000000
0.204652 0.000000 0.000000
0.302878 0.000000 0.000000
0.398655 0.000000 0.000000
0.485380 0.000000 0.000000
0.569187 0.000000 0.000000
0.648431 0.000000 0.000000
0.721860 0.000000 0.000000
0.796272 0.000000 0.000000
0.865566 0.000000 0.000000
0.933560 0.000000 0.000000
1.000000 0.000000 0.000000
0.000000 0.066440 0.000000
0.102538 0.067078 0.000000
0.203427 0.068891 0.000000
0.301150 0.071829 0.000000
0.396508 0.075689 0.000000
0.483058 0.080138 0.000000
0.566850 0.084815 0.000000
0.646163 0.089487 0.000000
0.719816 0.093962 0.000000
0.794579 0.097764 0.000000
0.864333 0.100717 0.000000
0.932922 0.102538 0.000000
1.000000 0.103169 0.000000
0.000000 0.134434 0.000000
0.100717 0.135667 0.000000
0.199943 0.139211 0.000000
0.296202 0.144865 0.000000
0.390626 0.152200 0.000000
0.476365 0.160628 0.000000
0.559863 0.169518 0.000000
0.639433 0.178498 0.000000
0.713735 0.186990 0.000000
0.789637 0.194252 0.000000
0.860789 0.199943 0.000000
0.931109 0.203427 0.000000
1.000000 0.204652 0.000000
0.000000 0.203728 0.000000
0.097764 0.205421 0.000000
0.194252 0.210363 0.000000
0.288210 0.218302 0.000000
0.380897 0.228703 0.000000
0.465659 0.240635 0.000000
0.548811 0.253296 0.000000
0.628773 0.265938 0.000000
0.704061 0.277893 0.000000
0.781698 0.288210 0.000000
0.855135 0.296202 0.000000
0.928171 0.301150 0.000000
1.000000 0.302878 0.000000
0.000000 0.278140 0.000000
0.093962 0.280184 0.000000
0.186990 0.286265 0.000000
0.277893 0.295939 0.000000
0.368544 0.308533 0.000000
0.451708 0.323067 0.000000
0.534398 0.338534 0.000000
0.614830 0.354165 0.000000
0.691467 0.368544 0.000000
0.771297 0.380897 0.000000
0.847800 0.390626 0.000000
0.924311 0.396508 0.000000
1.000000 0.398655 0.000000
0.000000 0.351569 0.000000
0.089487 0.353837 0.000000
0.178498 0.360567 0.000000
0.265938 0.371227 0.000000
0.354165 0.385170 0.000000
0.435686 0.401159 0.000000
0.517850 0.418409 0.000000
0.598841 0.435686 0.000000
0.676933 0.451708 0.000000
0.759365 0.465659 0.000000
0.839372 0.476365 0.000000
0.919862 0.483058 0.000000
1.000000 0.485380 0.000000
0.000000 0.430813 0.000000
0.084815 0.433150 0.000000
0.169518 0.440137 0.000000
0.253296 0.451189 0.000000
0.338534 0.465602 0.000000
0.418409 0.482150 0.000000
0.500000 0.500000 0.000000
0.581591 0.517850 0.000000
0.661466 0.534398 0.000000
0.746704 0.548811 0.000000
0.830482 0.559863 0.000000
0.915185 0.566850 0.000000
1.000000 0.569187 0.000000
0.000000 0.514620 0.000000
0.080138 0.516942 0.000000
0.160628 0.523635 0.000000
0.240635 0.534341 0.000000
0.323067 0.548292 0.000000
0.401159 0.564314 0.000000
0.482150 0.581591 0.000000
0.564314 0.598841 0.000000
0.645835 0.614830 0.000000
0.734062 0.628773 0.000000
0.821502 0.639433 0.000000
0.910514 0.646163 0.000000
1.000000 0.648431 0.000000
0.000000 0.601345 0.000000
0.075689 0.603492 0.000000
0.152200 0.609374 0.000000
0.228703 0.619103 0.000000
0.308533 0.631456 0.000000
0.385170 0.645835 0.000000
0.465602 0.661466 0.000000
0.548292 0.676933 0.000000
0.631456 0.691467 0.000000
0.722107 0.704061 0.000000
0.813010 0.713735 0.000000
0.906038 0.719816 0.000000
1.000000 0.721860 0.000000
0.000000 0.697122 0.000000
0.071829 0.698850 0.000000
0.144865 0.703798 0.000000
0.218302 0.711790 0.000000
0.295939 0.722107 0.000000
0.371227 0.734062 0.000000
0.451189 0.746704 0.000000
0.534341 0.759365 0.000000
0.619103 0.771297 0.000000
0.711790 0.781698 0.000000
0.805748 0.789637 0.000000
0.902236 0.794579 0.000000
1.000000 0.796272 0.000000
0.000000 0.795348 0.000000
0.068891 0.796573 0.000000
0.139211 0.800057 0.000000
0.210363 0.805748 0.000000
0.286265 0.813010 0.000000
0.360567 0.821502 0.000000
0.440137 0.830482 0.000000
0.523635 0.839372 0.000000
0.609374 0.847800 0.000000
0.703798 0.855135 0.000000
0.800057 0.860789 0.000000
0.899283 0.864333 0.000000
1.000000 0.865566 0.000000
0.000000 0.896832 0.000000
0.067078 0.897462 0.000000
0.135667 0.899283 0.000000
0.205421 0.902236 0.000000
0.280184 0.906038 0.000000
0.353837 0.910514 0.000000
0.433150 0.915185 0.000000
0.516942 0.919862 0.000000
0.603492 0.924311 0.000000
0.698850 0.928171 0.000000
0.796573 0.931109 0.000000
0.897462 0.932922 0.000000
1.000000 0.933560 0.000000
0.000000 1.000000 0.000000
0.066440 1.000000 0.000000
0.134434 1.000000 0.000000
0.203728 1.000000 0.000000
0.278140 1.000000 0.000000
0.351569 1.000000 0.000000
0.430813 1.000000 0.000000
0.514620 1.000000 0.000000
0.601345 1.000000 0.000000
0.697122 1.000000 0.000000
0.795348 1.000000 0.000000
0.896832 1.000000 0.000000
1.000000 1.000000 0.000000
0.000000 0.000000 0.082500
0.103169 0.000000 0.082500
0.204652 0.000000 0.082500
0.302878 0.000000 0.082500
0.398655 0.000000 0.082500
0.485380 0.000000 0.082500
0.569187 0.000000 0.082500
0.648431 0.000000 0.082500
0.721860 0.000000 0.082500
0.796272 0.000000 0.082500
0.865566 0.000000 0.082500
0.933560 0.000000 0.082500
1.000000 0.000000 0.082500
0.000000 0.066440 0.082500
0.102538 0.067078 0.082500
0.203427 0.068891 0.082500
0.301150 0.071829 0.082500
0.396508 0.075689 0.082500
0.483058 0.080138 0.082500
0.566850 0.084815 0.082500
0.646163 0.089487 0.082500
0.719816 0.093962 0.082500
0.794579 0.097764 0.082500
0.864333 0.100717 0.082500
0.932922 0.102538 0.082500
1.000000 0.103169 0.082500
0.000000 0.134434 0.082500
0.100717 0.135667 0.082500
0.199943 0.139211 0.082500
0.296202 0.144865 0.082500
0.390626 0.152200 0.082500
0.476365 0.160628 0.082500
0.559863 0.169518 0.082500
0.639433 0.178498 0.082500
0.713735 0.186990 0.082500
0.789637 0.194252 0.082500
0.860789 0.199943 0.082500
0.931109 0.203427 0.082500
1.000000 0.204652 0.082500
0.000000 0.203728 0.082500
0.097764 0.205421 0.082500
0.194252 0.210363 0.082500
0.288210 0.218302 0.082500
0.380897 0.228703 0.082500
0.465659 0.240635 0.082500
0.548811 0.253296 0.082500
0.628773 0.265938 0.082500
0.704061 0.277893 0.082500
0.781698 0.288210 0.082500
0.855135 0.296202 0.082500
0.928171 0.301150 0.082500
1.000000 0.302878 0.082500
0.000000 0.278140 0.082500
0.093962 0.280184 0.082500
0.186990 0.286265 0.082500
0.277893 0.295939 0.082500
0.368544 0.308533 0.082500
0.451708 0.323067 0.082500
0.534398 0.338534 0.082500
0.614830 0.354165 0.082500
0.691467 0.368544 0.082500
0.771297 0.380897 0.082500
0.847800 0.390626 0.082500
0.924311 0.396508 0.082500
1.000000 0.398655 0.082500
0.000000 0.351569 0.082500
0.089487 0.353837 0.082500
0.178498 0.360567 0.082500
0.265938 0.371227 0.082500
0.354165 0.385170 0.082500
0.435686 0.401159 0.082500
0.517850 0.418409 0.082500
0.598841 0.435686 0.082500
0.676933 0.451708 0.082500
0.759365 0.465659 0.082500
0.839372 0.476365 0.082500
0.919862 0.483058 0.082500
1.000000 0.485380 0.082500
0.000000 0.430813 0.082500
0.084815 0.433150 0.082500
0.169518 0.440137 0.082500
0.253296 0.451189 0.082500
0.338534 0.465602 0.082500
0.418409 0.482150 0.082500
0.500000 0.500000 0.082500
0.581591 0.517850 0.082500
0.661466 0.534398 0.082500
0.746704 0.548811 0.082500
0.830482 0.559863 0.082500
0.915185 0.566850 0.082500
1.000000 0.569187 0.082500
0.000000 0.514620 0.082500
0.080138 0.516942 0.082500
0.160628 0.523635 0.082500
0.240635 0.534341 0.082500
0.323067 0.548292 0.082500
0.401159 0.564314 0.082500
0.482150 0.581591 0.082500
0.564314 0.598841 0.082500
0.645835 0.614830 0.082500
0.734062 0.628773 0.082500
0.821502 0.639433 0.082500
0.910514 0.646163 0.082500
1.000000 0.648431 0.082500
0.000000 0.601345 0.082500
0.075689 0.603492 0.082500
0.152200 0.609374 0.082500
0.228703 0.619103 0.082500
0.308533 0.631456 0.082500
0.385170 0.645835 0.082500
0.465602 0.661466 0.082500
0.548292 0.676933 0.082500
0.631456 0.691467 0.082500
0.722107 0.704061 0.082500
0.813010 0.713735 0.082500
0.906038 0.719816 0.082500
1.000000 0.721860 0.082500
0.000000 0.697122 0.082500
0.071829 0.698850 0.082500
0.144865 0.703798 0.082500
0.218302 0.711790 0.082500
0.295939 0.722107 0.082500
0.371227 0.734062 0.082500
0.451189 0.746704 0.082500
0.534341 0.759365 0.082500
0.619103 0.771297 0.082500
0.711790 0.781698 0.082500
0.805748 0.789637 0.082500
0.902236 0.794579 0.082500
1.000000 0.796272 0.082500
0.000000 0.795348 0.082500
0.068891 0.796573 0.082500
0.139211 0.800057 0.082500
0.210363 0.805748 0.082500
0.286265 0.813010 0.082500
0.360567 0.821502 0.082500
0.440137 0.830482 0.082500
0.523635 0.839372 0.082500
0.609374 0.847800 0.082500
0.703798 0.855135 0.082500
0.800057 0.860789 0.082500
0.899283 0.864333 0.082500
1.000000 0.865566 0.082500
0.000000 0.896832 0.082500
0.067078 0.897462 0.082500
0.135667 0.899283 0.082500
0.205421 0.902236 0.082500
0.280184 0.906038 0.082500
0.353837 0.910514 0.082500
0.433150 0.915185 0.082500
0.516942 0.919862 0.082500
0.603492 0.924311 0.082500
0.698850 0.928171 0.082500
0.796573 0.931109 0.082500
0.897462 0.932922 0.082500
1.000000 0.933560 0.082500
0.000000 1.000000 0.082500
0.066440 1.000000 0.082500
0.134434 1.000000 0.082500
0.203728 1.000000 0.082500
0.278140 1.000000 0.082500
0.351569 1.000000 0.082500
0.430813 1.000000 0.082500
0.514620 1.000000 0.082500
0.601345 1.000000 0.082500
0.697122 1.000000 0.082500
0.795348 1.000000 0.082500
0.896832 1.000000 0.082500
1.000000 1.000000 0.082500
0.000000 0.000000 0.165000
0.103169 0.000000 0.165000
0.204652 0.000000 0.165000
0.302878 0.000000 0.165000
0.398655 0.000000 0.165000
0.485380 0.000000 0.165000
0.569187 0.000000 0.165000
0.648431 0.000000 0.165000
0.721860 0.000000 0.165000
0.796272 0.000000 0.165000
0.865566 0.000000 0.165000
0.933560 0.000000 0.165000
1.000000 0.000000 0.165000
0.000000 0.066440 0.165000
0.102538 0.067078 0.165000
0.203427 0.068891 0.165000
0.301150 0.071829 0.165000
0.396508 0.075689 0.165000
0.483058 0.080138 0.165000
0.566850 0.084815 0.165000
0.646163 0.089487 0.165000
0.719816 0.093962 0.165000
0.794579 0.097764 0.165000
0.864333 0.100717 0.165000
0.932922 0.102538 0.165000
1.000000 0.103169 0.165000
0.000000 0.134434 0.165000
0.100717 0.135667 0.165000
[...]
POINT_DATA 845 
VECTORS pos float 
0.000000 0.000000 0.000000
0.103169 0.000000 0.000000
0.204652 0.000000 0.000000
0.302878 0.000000 0.000000
0.398655 0.000000 0.000000
0.485380 0.000000 0.000000
0.569187 0.000000 0.000000
0.648431 0.000000 0.000000
0.721860 0.000000 0.000000
0.796272 0.000000 0.000000
0.865566 0.000000 0.000000
0.933560 0.000000 0.000000
1.000000 0.000000 0.000000
0.000000 0.066440 0.000000
0.102538 0.067078 0.000000
0.203427 0.068891 0.000000
0.301150 0.071829 0.000000
0.396508 0.075689 0.000000
0.483058 0.080138 0.000000
0.566850 0.084815 0.000000
0.646163 0.089487 0.000000
0.719816 0.093962 0.000000
0.794579 0.097764 0.000000
0.864333 0.100717 0.000000
0.932922 0.102538 0.000000
1.000000 0.103169 0.000000
0.000000 0.134434 0.000000
0.100717 0.135667 0.000000
0.199943 0.139211 0.000000
0.296202 0.144865 0.000000
0.390626 0.152200 0.000000
0.476365 0.160628 0.000000
0.559863 0.169518 0.000000
0.639433 0.178498 0.000000
0.713735 0.186990 0.000000
0.789637 0.194252 0.000000
0.860789 0.199943 0.000000
0.931109 0.203427 0.000000
1.000000 0.204652 0.000000
0.000000 0.203728 0.000000
0.097764 0.205421 0.000000
0.194252 0.210363 0.000000
0.288210 0.218302 0.000000
0.380897 0.228703 0.000000
0.465659 0.240635 0.000000
0.548811 0.253296 0.000000
0.628773 0.265938 0.000000
0.704061 0.277893 0.000000
0.781698 0.288210 0.000000
0.855135 0.296202 0.000000
0.928171 0.301150 0.000000
1.000000 0.302878 0.000000
0.000000 0.278140 0.000000
0.093962 0.280184 0.000000
0.186990 0.286265 0.000000
0.277893 0.295939 0.000000
0.368544 0.308533 0.000000
0.451708 0.323067 0.000000
0.534398 0.338534 0.000000
0.614830 0.354165 0.000000
0.691467 0.368544 0.000000
0.771297 0.380897 0.000000
0.847800 0.390626 0.000000
0.924311 0.396508 0.000000
1.000000 0.398655 0.000000
0.000000 0.351569 0.000000
0.089487 0.353837 0.000000
0.178498 0.360567 0.000000
0.265938 0.371227 0.000000
0.354165 0.385170 0.000000
0.435686 0.401159 0.000000
0.517850 0.418409 0.000000
0.598841 0.435686 0.000000
0.676933 0.451708 0.000000
0.759365 0.465659 0.000000
0.839372 0.476365 0.000000
0.919862 0.483058 0.000000
1.000000 0.485380 0.000000
0.000000 0.430813 0.000000
0.084815 0.433150 0.000000
0.169518 0.440137 0.000000
0.253296 0.451189 0.000000
0.338534 0.465602 0.000000
0.418409 0.482150 0.000000
0.500000 0.500000 0.000000
0.581591 0.517850 0.000000
0.661466 0.534398 0.000000
0.746704 0.548811 0.000000
0.830482 0.559863 0.000000
0.915185 0.566850 0.000000
1.000000 0.569187 0.000000
0.000000 0.514620 0.000000
0.080138 0.516942 0.000000
0.160628 0.523635 0.000000
0.240635 0.534341 0.000000
0.323067 0.548292 0.000000
0.401159 0.564314 0.000000
0.482150 0.581591 0.000000
0.564314 0.598841 0.000000
0.645835 0.614830 0.000000
0.734062 0.628773 0.000000
0.821502 0.639433 0.000000
0.910514 0.646163 0.000000
1.000000 0.648431 0.000000
0.000000 0.601345 0.000000
0.075689 0.603492 0.000000
0.152200 0.609374 0.000000
0.228703 0.619103 0.000000
0.308533 0.631456 0.000000
0.385170 0.645835 0.000000
0.465602 0.661466 0.000000
0.548292 0.676933 0.000000
0.631456 0.691467 0.000000
0.722107 0.704061 0.000000
0.813010 0.713735 0.000000
0.906038 0.719816 0.000000
1.000000 0.721860 0.000000
0.000000 0.697122 0.000000
0.071829 0.698850 0.000000
0.144865 0.703798 0.000000
0.218302 0.711790 0.000000
0.295939 0.722107 0.000000
0.371227 0.734062 0.000000
0.451189 0.746704 0.000000
0.534341 0.759365 0.000000
0.619103 0.771297 0.000000
0.711790 0.781698 0.000000
0.805748 0.789637 0.000000
0.902236 0.794579 0.000000
1.000000 0.796272 0.000000
0.000000 0.795348 0.000000
0.068891 0.796573 0.000000
0.139211 0.800057 0.000000
0.210363 0.805748 0.000000
0.286265 0.813010 0.000000
0.360567 0.821502 0.000000
0.440137 0.830482 0.000000
0.523635 0.839372 0.000000
0.609374 0.847800 0.000000
0.703798 0.855135 0.000000
0.800057 0.860789 0.000000
0.899283 0.864333 0.000000
1.000000 0.865566 0.000000
0.000000 0.896832 0.000000
0.067078 0.897462 0.000000
0.135667 0.899283 0.000000
0.205421 0.902236 0.000000
0.280184 0.906038 0.000000
0.353837 0.910514 0.000000
0.433150 0.915185 0.000000
0.516942 0.919862 0.000000
0.603492 0.924311 0.000000
0.698850 0.928171 0.000000
0.796573 0.931109 0.000000
0.897462 0.932922 0.000000
1.000000 0.933560 0.000000
0.000000 1.000000 0.000000
0.066440 1.000000 0.000000
0.134434 1.000000 0.000000
0.203728 1.000000 0.000000
0.278140 1.000000 0.000000
0.351569 1.000000 0.000000
0.430813 1.000000 0.000000
0.514620 1.000000 0.000000
0.601345 1.000000 0.000000
0.697122 1.000000 0.000000
0.795348 1.000000 0.000000
0.896832 1.000000 0.000000
1.000000 1.000000 0.000000
0.000000 0.000000 0.082500
0.103169 0.000000 0.082500
0.204652 0.000000 0.082500
0.302878 0.000000 0.082500
0.398655 0.000000 0.082500
0.485380 0.000000 0.082500
0.569187 0.000000 0.082500
0.648431 0.000000 0.082500
0.721860 0.000000 0.082500
0.796272 0.000000 0.082500
0.865566 0.000000 0.082500
0.933560 0.000000 0.082500
1.000000 0.000000 0.082500
0.000000 0.066440 0.082500
0.102538 0.067078 0.082500
0.203427 0.068891 0.082500
0.301150 0.071829 0.082500
0.396508 0.075689 0.082500
0.483058 0.080138 0.082500
0.566850 0.084815 0.082500
0.646163 0.089487 0.082500
0.719816 0.093962 0.082500
0.794579 0.097764 0.082500
0.864333 0.100717 0.082500
0.932922 0.102538 0.082500
1.000000 0.103169 0.082500
0.000000 0.134434 0.082500
0.100717 0.135667 0.082500
0.199943 0.139211 0.082500
0.296202 0.144865 0.082500
0.390626 0.152200 0.082500
0.476365 0.160628 0.082500
0.559863 0.169518 0.082500
0.639433 0.178498 0.082500
0.713735 0.186990 0.082500
0.789637 0.194252 0.082500
0.860789 0.199943 0.082500
0.931109 0.203427 0.082500
1.000000 0.204652 0.082500
0.000000 0.203728 0.082500
0.097764 0.205421 0.082500
0.194252 0.210363 0.082500
0.288210 0.218302 0.082500
0.380897 0.228703 0.082500
0.465659 0.240635 0.082500
0.548811 0.253296 0.082500
0.628773 0.265938 0.082500
0.704061 0.277893 0.082500
0.781698 0.288210 0.082500
0.855135 0.296202 0.082500
0.928171 0.301150 0.082500
1.000000 0.302878 0.082500
0.000000 0.278140 0.082500
0.093962 0.280184 0.082500
0.186990 0.286265 0.082500
0.277893 0.295939 0.082500
0.368544 0.308533 0.082500
0.451708 0.323067 0.082500
0.534398 0.338534 0.082500
0.614830 0.354165 0.082500
0.691467 0.368544 0.082500
0.771297 0.380897 0.082500
0.847800 0.390626 0.082500
0.924311 0.396508 0.082500
1.000000 0.398655 0.082500
0.000000 0.351569 0.082500
0.089487 0.353837 0.082500
0.178498 0.360567 0.082500
0.265938 0.371227 0.082500
0.354165 0.385170 0.082500
0.435686 0.401159 0.082500
0.517850 0.418409 0.082500
0.598841 0.435686 0.082500
0.676933 0.451708 0.082500
0.759365 0.465659 0.082500
0.839372 0.476365 0.082500
0.919862 0.483058 0.082500
1.000000 0.485380 0.082500
0.000000 0.430813 0.082500
0.084815 0.433150 0.082500
0.169518 0.440137 0.082500
0.253296 0.451189 0.082500
0.338534 0.465602 0.082500
0.418409 0.482150 0.082500
0.500000 0.500000 0.082500
0.581591 0.517850 0.082500
0.661466 0.534398 0.082500
0.746704 0.548811 0.082500
0.830482 0.559863 0.082500
0.915185 0.566850 0.082500
1.000000 0.569187 0.082500
0.000000 0.514620 0.082500
0.080138 0.516942 0.082500
0.160628 0.523635 0.082500
0.240635 0.534341 0.082500
0.323067 0.548292 0.082500
0.401159 0.564314 0.082500
0.482150 0.581591 0.082500
0.564314 0.598841 0.082500
0.645835 0.614830 0.082500
0.734062 0.628773 0.082500
0.821502 0.639433 0.082500
0.910514 0.646163 0.082500
1.000000 0.648431 0.082500
0.000000 0.601345 0.082500
0.075689 0.603492 0.082500
0.152200 0.609374 0.082500
0.228703 0.619103 0.082500
0.308533 0.631456 0.082500
0.385170 0.645835 0.082500
0.465602 0.661466 0.082500
0.548292 0.676933 0.082500
0.631456 0.691467 0.082500
0.722107 0.704061 0.082500
0.813010 0.713735 0.082500
0.906038 0.719816 0.082500
1.000000 0.721860 0.082500
0.000000 0.697122 0.082500
0.071829 0.698850 0.082500
0.144865 0.703798 0.082500
0.218302 0.711790 0.082500
0.295939 0.722107 0.082500
0.371227 0.734062 0.082500
0.451189 0.746704 0.082500
0.534341 0.759365 0.082500
0.619103 0.771297 0.082500
0.711790 0.781698 0.082500
0.805748 0.789637 0.082500
0.902236 0.794579 0.082500
1.000000 0.796272 0.082500
0.000000 0.795348 0.082500
0.068891 0.796573 0.082500
0.139211 0.800057 0.082500
0.210363 0.805748 0.082500
0.286265 0.813010 0.082500
0.360567 0.821502 0.082500
0.440137 0.830482 0.082500
0.523635 0.839372 0.082500
0.609374 0.847800 0.082500
0.703798 0.855135 0.082500
0.800057 0.860789 0.082500
0.899283 0.864333 0.082500
1.000000 0.865566 0.082500
0.000000 0.896832 0.082500
0.067078 0.897462 0.082500
0.135667 0.899283 0.082500
0.205421 0.902236 0.082500
0.280184 0.906038 0.082500
0.353837 0.910514 0.082500
0.433150 0.915185 0.082500
0.516942 0.919862 0.082500
0.603492 0.924311 0.082500
0.698850 0.928171 0.082500
0.796573 0.931109 0.082500
0.897462 0.932922 0.082500
1.000000 0.933560 0.082500
0.000000 1.000000 0.082500
0.066440 1.000000 0.082500
0.134434 1.000000 0.082500
0.203728 1.000000 0.082500
0.278140 1.000000 0.082500
0.351569 1.000000 0.082500
0.430813 1.000000 0.082500
0.514620 1.000000 0.082500
0.601345 1.000000 0.082500
0.697122 1.000000 0.082500
0.795348 1.000000 0.082500
0.896832 1.000000 0.082500
1.000000 1.000000 0.082500
0.000000 0.000000 0.165000
0.103169 0.000000 0.165000
0.204652 0.000000 0.165000
0.302878 0.000000 0.165000
0.398655 0.000000 0.165000
0.485380 0.000000 0.165000
0.569187 0.000000 0.165000
0.648431 0.000000 0.165000
0.721860 0.000000 0.165000
0.796272 0.000000 0.165000
0.865566 0.000000 0.165000
0.933560 0.000000 0.165000
1.000000 0.000000 0.165000
0.000000 0.066440 0.165000
0.102538 0.067078 0.165000
0.203427 0.068891 0.165000
0.301150 0.071829 0.165000
0.396508 0.075689 0.165000
0.483058 0.080138 0.165000
0.566850 0.084815 0.165000
0.646163 0.089487 0.165000
0.719816 0.093962 0.165000
0.794579 0.097764 0.165000
0.864333 0.100717 0.165000
0.932922 0.102538 0.165000
1.000000 0.103169 0.165000
0.000000 0.134434 0.165000
0.100717 0.135667 0.165000
0.199943 0.139211 0.165000
0.296202 0.144865 0.165000
0.390626 0.152200 0.165000
0.476365 0.160628 0.165000
0.559863 0.169518 0.165000
0.639433 0.178498 0.165000
0.713735 0.186990 0.165000
0.789637 0.194252 0.165000
0.860789 0.199943 0.165000
0.931109 0.203427 0.165000
1.000000 0.204652 0.165000
0.000000 0.203728 0.165000
0.097764 0.205421 0.165000
0.194252 0.210363 0.165000
0.288210 0.218302 0.165000
0.380897 0.228703 0.165000
0.465659 0.240635 0.165000
0.548811 0.253296 0.165000
0.628773 0.265938 0.165000
0.704061 0.277893 0.165000
0.781698 0.288210 0.165000
0.855135 0.296202 0.165000
0.928171 0.301150 0.165000
1.000000 0.302878 0.165000
0.000000 0.278140 0.165000
0.093962 0.280184 0.165000
0.186990 0.286265 0.165000
0.277893 0.295939 0.165000
0.368544 0.308533 0.165000
0.451708 0.323067 0.165000
0.534398 0.338534 0.165000
0.614830 0.354165 0.165000
0.691467 0.368544 0.165000
0.771297 0.380897 0.165000
0.847800 0.390626 0.165000
0.924311 0.396508 0.165000
1.000000 0.398655 0.165000
0.000000 0.351569 0.165000
0.089487 0.353837 0.165000
0.178498 0.360567 0.165000
0.265938 0.371227 0.165000
0.354165 0.385170 0.165000
0.435686 0.401159 0.165000
0.517850 0.418409 0.165000
0.598841 0.435686 0.165000
0.676933 0.451708 0.165000
0.759365 0.465659 0.165000
0.839372 0.476365 0.165000
0.919862 0.483058 0.165000
1.000000 0.485380 0.165000
0.000000 0.430813 0.165000
0.084815 0.433150 0.165000
0.169518 0.440137 0.165000
0.253296 0.451189 0.165000
0.338534 0.465602 0.165000
0.418409 0.482150 0.165000
0.500000 0.500000 0.165000
0.581591 0.517850 0.165000
0.661466 0.534398 0.165000
0.746704 0.548811 0.165000
0.830482 0.559863 0.165000
0.915185 0.566850 0.165000
1.000000 0.569187 0.165000
0.000000 0.514620 0.165000
0.080138 0.516942 0.165000
0.160628 0.523635 0.165000
0.240635 0.534341 0.165000
0.323067 0.548292 0.165000
0.401159 0.564314 0.165000
0.482150 0.581591 0.165000
0.564314 0.598841 0.165000
0.645835 0.614830 0.165000
0.734062 0.628773 0.165000
0.821502 0.639433 0.165000
0.910514 0.646163 0.165000
1.000000 0.648431 0.165000
0.000000 0.601345 0.165000
0.075689 0.603492 0.165000
0.152200 0.609374 0.165000
0.228703 0.619103 0.165000
0.308533 0.631456 0.165000
0.385170 0.645835 0.165000
0.465602 0.661466 0.165000
0.548292 0.676933 0.165000
0.631456 0.691467 0.165000
0.722107 0.704061 0.165000
0.813010 0.713735 0.165000
0.906038 0.719816 0.165000
1.000000 0.721860 0.165000
0.000000 0.697122 0.165000
0.071829 0.698850 0.165000
0.144865 0.703798 0.165000
0.218302 0.711790 0.165000
0.295939 0.722107 0.165000
0.371227 0.734062 0.165000
0.451189 0.746704 0.165000
0.534341 0.759365 0.165000
0.619103 0.771297 0.165000
0.711790 0.781698 0.165000
0.805748 0.789637 0.165000
0.902236 0.794579 0.165000
1.000000 0.796272 0.165000
0.000000 0.795348 0.165000
0.068891 0.796573 0.165000
0.139211 0.800057 0.165000
0.210363 0.805748 0.165000
0.286265 0.813010 0.165000
0.360567 0.821502 0.165000
0.440137 0.830482 0.165000
0.523635 0.839372 0.165000
0.609374 0.847800 0.165000
0.703798 0.855135 0.165000
0.800057 0.860789 0.165000
0.899283 0.864333 0.165000
1.000000 0.865566 0.165000
0.000000 0.896832 0.165000
0.067078 0.897462 0.165000
0.135667 0.899283 0.165000
0.205421 0.902236 0.165000
0.280184 0.906038 0.165000
0.353837 0.910514 0.165000
0.433150 0.915185 0.165000
0.516942 0.919862 0.165000
0.603492 0.924311 0.165000
0.698850 0.928171 0.165000
0.796573 0.931109 0.165000
0.897462 0.932922 0.165000
1.000000 0.933560 0.165000
0.000000 1.000000 0.165000
0.066440 1.000000 0.165000
0.134434 1.000000 0.165000
0.203728 1.000000 0.165000
0.278140 1.000000 0.165000
0.351569 1.000000 0.165000
0.430813 1.000000 0.165000
0.514620 1.000000 0.165000
0.601345 1.000000 0.165000
0.697122 1.000000 0.165000
0.795348 1.000000 0.165000
0.896832 1.000000 0.165000
1.000000 1.000000 0.165000
0.000000 0.000000 0.247500
0.103169 0.000000 0.247500
0.204652 0.000000 0.247500
0.302878 0.000000 0.247500
0.398655 0.000000 0.247500
0.485380 0.000000 0.247500
0.569187 0.000000 0.247500
0.648431 0.000000 0.247500
0.721860 0.000000 0.247500
0.796272 0.000000 0.247500
0.865566 0.000000 0.247500
0.933560 0.000000 0.247500
1.000000 0.000000 0.247500
0.000000 0.066440 0.247500
0.102538 0.067078 0.247500
0.203427 0.068891 0.247500
0.301150 0.071829 0.247500
0.396508 0.075689 0.247500
0.483058 0.080138 0.247500
0.566850 0.084815 0.247500
0.646163 0.089487 0.247500
0.719816 0.093962 0.247500
0.794579 0.097764 0.247500
0.864333 0.100717 0.247500
0.932922 0.102538 0.247500
1.000000 0.103169 0.247500
0.000000 0.134434 0.247500
0.100717 0.135667 0.247500
0.199943 0.139211 0.247500
0.296202 0.144865 0.247500
0.390626 0.152200 0.247500
0.476365 0.160628 0.247500
0.559863 0.169518 0.247500
0.639433 0.178498 0.247500
0.713735 0.186990 0.247500
0.789637 0.194252 0.247500
0.860789 0.199943 0.247500
0.931109 0.203427 0.247500
1.000000 0.204652 0.247500
0.000000 0.203728 0.247500
0.097764 0.205421 0.247500
0.194252 0.210363 0.247500
0.288210 0.218302 0.247500
0.380897 0.228703 0.247500
0.465659 0.240635 0.247500
0.548811 0.253296 0.247500
0.628773 0.265938 0.247500
0.704061 0.277893 0.247500
0.781698 0.288210 0.247500
0.855135 0.296202 0.247500
0.928171 0.301150 0.247500
1.000000 0.302878 0.247500
0.000000 0.278140 0.247500
0.093962 0.280184 0.247500
0.186990 0.286265 0.247500
0.277893 0.295939 0.247500
0.368544 0.308533 0.247500
0.451708 0.323067 0.247500
0.534398 0.338534 0.247500
0.614830 0.354165 0.247500
0.691467 0.368544 0.247500
0.771297 0.380897 0.247500
0.847800 0.390626 0.247500
0.924311 0.396508 0.247500
1.000000 0.398655 0.247500
0.000000 0.351569 0.247500
0.089487 0.353837 0.247500
0.178498 0.360567 0.247500
0.265938 0.371227 0.247500
0.354165 0.385170 0.247500
0.435686 0.401159 0.247500
0.517850 0.418409 0.247500
0.598841 0.435686 0.247500
0.676933 0.451708 0.247500
0.759365 0.465659 0.247500
0.839372 0.476365 0.247500
0.919862 0.483058 0.247500
1.000000 0.485380 0.247500
0.000000 0.430813 0.247500
0.084815 0.433150 0.247500
0.169518 0.440137 0.247500
0.253296 0.451189 0.247500
0.338534 0.465602 0.247500
0.418409 0.482150 0.247500
0.500000 0.500000 0.247500
0.581591 0.517850 0.247500
0.661466 0.534398 0.247500
0.746704 0.548811 0.247500
0.830482 0.559863 0.247500
0.915185 0.566850 0.247500
1.000000 0.569187 0.247500
0.000000 0.514620 0.247500
0.080138 0.516942 0.247500
0.160628 0.523635 0.247500
0.240635 0.534341 0.247500
0.323067 0.548292 0.247500
0.401159 0.564314 0.247500
0.482150 0.581591 0.247500
0.564314 0.598841 0.247500
0.645835 0.614830 0.247500
0.734062 0.628773 0.247500
0.821502 0.639433 0.247500
0.910514 0.646163 0.247500
1.000000 0.648431 0.247500
0.000000 0.601345 0.247500
0.075689 0.603492 0.247500
0.152200 0.609374 0.247500
0.228703 0.619103 0.247500
0.308533 0.631456 0.247500
0.385170 0.645835 0.247500
0.465602 0.661466 0.247500
0.548292 0.676933 0.247500
0.631456 0.691467 0.247500
0.722107 0.704061 0.247500
0.813010 0.713735 0.247500
0.906038 0.719816 0.247500
1.000000 0.721860 0.247500
0.000000 0.697122 0.247500
0.071829 0.698850 0.247500
0.144865 0.703798 0.247500
0.218302 0.711790 0.247500
0.295939 0.722107 0.247500
0.371227 0.734062 0.247500
0.451189 0.746704 0.247500
0.534341 0.759365 0.247500
0.619103 0.771297 0.247500
0.711790 0.781698 0.247500
0.805748 0.789637 0.247500
0.902236 0.794579 0.247500
1.000000 0.796272 0.247500
0.000000 0.795348 0.247500
0.068891 0.796573 0.247500
0.139211 0.800057 0.247500
0.210363 0.805748 0.247500
0.286265 0.813010 0.247500
0.360567 0.821502 0.247500
0.440137 0.830482 0.247500
0.523635 0.839372 0.247500
0.609374 0.847800 0.247500
0.703798 0.855135 0.247500
0.800057 0.860789 0.247500
0.899283 0.864333 0.247500
1.000000 0.865566 0.247500
0.000000 0.896832 0.247500
0.067078 0.897462 0.247500
0.135667 0.899283 0.247500
0.205421 0.902236 0.247500
0.280184 0.906038 0.247500
0.353837 0.910514 0.247500
0.433150 0.915185 0.247500
0.516942 0.919862 0.247500
0.603492 0.924311 0.247500
0.698850 0.928171 0.247500
0.796573 0.931109 0.247500
0.897462 0.932922 0.247500
1.000000 0.933560 0.247500
0.000000 1.000000 0.247500
0.066440 1.000000 0.247500
0.134434 1.000000 0.247500
0.203728 1.000000 0.247500
0.278140 1.000000 0.247500
0.351569 1.000000 0.247500
0.430813 1.000000 0.247500
0.514620 1.000000 0.247500
0.601345 1.000000 0.247500
0.697122 1.000000 0.247500
0.795348 1.000000 0.247500
0.896832 1.000000 0.247500
1.000000 1.000000 0.247500
0.000000 0.000000 0.330000
0.103169 0.000000 0.330000
0.204652 0.000000 0.330000
0.302878 0.000000 0.330000
0.398655 0.000000 0.330000
0.485380 0.000000 0.330000
0.569187 0.000000 0.330000
0.648431 0.000000 0.330000
0.721860 0.000000 0.330000
0.796272 0.000000 0.330000
0.865566 0.000000 0.330000
0.933560 0.000000 0.330000
1.000000 0.000000 0.330000
0.000000 0.066440 0.330000
0.102538 0.067078 0.330000
0.203427 0.068891 0.330000
0.301150 0.071829 0.330000
0.396508 0.075689 0.330000
0.483058 0.080138 0.330000
0.566850 0.084815 0.330000
0.646163 0.089487 0.330000
0.719816 0.093962 0.330000
0.794579 0.097764 0.330000
0.864333 0.100717 0.330000
0.932922 0.102538 0.330000
1.000000 0.103169 0.330000
0.000000 0.134434 0.330000
0.100717 0.135667 0.330000
0.199943 0.139211 0.330000
0.296202 0.144865 0.330000
0.390626 0.152200 0.330000
0.476365 0.160628 0.330000
0.559863 0.169518 0.330000
0.639433 0.178498 0.330000
0.713735 0.186990 0.330000
0.789637 0.194252 0.330000
0.860789 0.199943 0.330000
0.931109 0.203427 0.330000
1.000000 0.204652 0.330000
0.000000 0.203728 0.330000
0.097764 0.205421 0.330000
0.194252 0.210363 0.330000
0.288210 0.218302 0.330000
0.380897 0.228703 0.330000
0.465659 0.240635 0.330000
0.548811 0.253296 0.330000
0.628773 0.265938 0.330000
0.704061 0.277893 0.330000
0.781698 0.288210 0.330000
0.855135 0.296202 0.330000
0.928171 0.301150 0.330000
1.000000 0.302878 0.330000
0.000000 0.278140 0.330000
0.093962 0.280184 0.330000
0.186990 0.286265 0.330000
0.277893 0.295939 0.330000
0.368544 0.308533 0.330000
0.451708 0.323067 0.330000
0.534398 0.338534 0.330000
0.614830 0.354165 0.330000
0.691467 0.368544 0.330000
0.771297 0.380897 0.330000
0.847800 0.390626 0.330000