# vtk DataFile Version 2.0
Mesh for Fierro
ASCII 
DATASET UNSTRUCTURED_GRID

POINTS 845 float
0.000000 0.000000 0.000000
0.476666 0.000000 0.000000
0.715068 0.000000 0.000000
0.796537 0.000000 0.000000
0.853741 0.000000 0.000000
0.889875 0.000000 0.000000
0.916490 0.000000 0.000000
0.936102 0.000000 0.000000
0.951145 0.000000 0.000000
0.962951 0.000000 0.000000
0.974303 0.000000 0.000000
0.987016 0.000000 0.000000
1.000000 0.000000 0.000000
0.000000 0.012984 0.000000
0.472214 0.019966 0.000000
0.700655 0.055403 0.000000
0.783020 0.093570 0.000000
0.836330 0.157075 0.000000
0.868135 0.214639 0.000000
0.890839 0.275628 0.000000
0.909876 0.336424 0.000000
0.926076 0.390390 0.000000
0.943118 0.428982 0.000000
0.960808 0.455807 0.000000
0.980034 0.472214 0.000000
1.000000 0.476666 0.000000
0.000000 0.025697 0.000000
0.455807 0.039192 0.000000
0.673628 0.101816 0.000000
0.760907 0.172717 0.000000
0.798455 0.278051 0.000000
0.826318 0.361516 0.000000
0.837771 0.449166 0.000000
0.844170 0.521673 0.000000
0.849766 0.584774 0.000000
0.868816 0.633875 0.000000
0.898184 0.673628 0.000000
0.944597 0.700655 0.000000
1.000000 0.715068 0.000000
0.000000 0.037049 0.000000
0.428982 0.056882 0.000000
0.633875 0.131184 0.000000
0.718489 0.223027 0.000000
0.740140 0.337631 0.000000
0.757701 0.430590 0.000000
0.748273 0.520277 0.000000
0.744788 0.595482 0.000000
0.745601 0.663831 0.000000
0.776973 0.718489 0.000000
0.827283 0.760907 0.000000
0.906430 0.783020 0.000000
1.000000 0.796538 0.000000
0.000000 0.048855 0.000000
0.390390 0.073924 0.000000
0.584774 0.150234 0.000000
0.663831 0.254399 0.000000
0.677979 0.368679 0.000000
0.678583 0.465227 0.000000
0.652187 0.547259 0.000000
0.641068 0.617261 0.000000
0.631321 0.677979 0.000000
0.662369 0.740140 0.000000
0.721949 0.798455 0.000000
0.842925 0.836330 0.000000
1.000000 0.853741 0.000000
0.000000 0.063898 0.000000
0.336424 0.090124 0.000000
0.521674 0.155830 0.000000
0.595482 0.255212 0.000000
0.617261 0.358932 0.000000
0.605850 0.450766 0.000000
0.574231 0.529436 0.000000
0.549234 0.605850 0.000000
0.534773 0.678583 0.000000
0.569410 0.757701 0.000000
0.638484 0.826318 0.000000
0.785362 0.868135 0.000000
1.000000 0.889875 0.000000
0.000000 0.083510 0.000000
0.275628 0.109161 0.000000
0.449166 0.162229 0.000000
0.520277 0.251727 0.000000
0.547259 0.347813 0.000000
0.529436 0.425769 0.000000
0.500000 0.500000 0.000000
0.470564 0.574231 0.000000
0.452741 0.652187 0.000000
0.479723 0.748273 0.000000
0.550834 0.837771 0.000000
0.724373 0.890839 0.000000
1.000000 0.916490 0.000000
0.000000 0.110125 0.000000
0.214639 0.131865 0.000000
0.361516 0.173682 0.000000
0.430590 0.242299 0.000000
0.465227 0.321417 0.000000
0.450766 0.394150 0.000000
0.425769 0.470564 0.000000
0.394150 0.549234 0.000000
0.382739 0.641068 0.000000
0.404519 0.744788 0.000000
0.478326 0.844170 0.000000
0.663577 0.909876 0.000000
1.000000 0.936102 0.000000
0.000000 0.146259 0.000000
0.157075 0.163670 0.000000
0.278051 0.201545 0.000000
0.337631 0.259859 0.000000
0.368679 0.322021 0.000000
0.358932 0.382739 0.000000
0.347813 0.452741 0.000000
0.321417 0.534773 0.000000
0.322021 0.631321 0.000000
0.336169 0.745601 0.000000
0.415226 0.849766 0.000000
0.609611 0.926076 0.000000
1.000000 0.951145 0.000000
0.000000 0.203463 0.000000
0.093570 0.216980 0.000000
0.172717 0.239093 0.000000
0.223027 0.281511 0.000000
0.254399 0.336169 0.000000
0.255212 0.404519 0.000000
0.251727 0.479723 0.000000
0.242299 0.569410 0.000000
0.259859 0.662369 0.000000
0.281511 0.776973 0.000000
0.366125 0.868816 0.000000
0.571020 0.943119 0.000000
1.000000 0.962951 0.000000
0.000000 0.284932 0.000000
0.055403 0.299345 0.000000
0.101816 0.326372 0.000000
0.131184 0.366125 0.000000
0.150234 0.415226 0.000000
0.155830 0.478326 0.000000
0.162229 0.550834 0.000000
0.173682 0.638484 0.000000
0.201545 0.721949 0.000000
0.239093 0.827283 0.000000
0.326372 0.898184 0.000000
0.544194 0.960808 0.000000
1.000000 0.974303 0.000000
0.000000 0.523335 0.000000
0.019966 0.527787 0.000000
0.039192 0.544194 0.000000
0.056881 0.571020 0.000000
0.073924 0.609611 0.000000
0.090124 0.663577 0.000000
0.109161 0.724373 0.000000
0.131865 0.785362 0.000000
0.163670 0.842925 0.000000
0.216980 0.906430 0.000000
0.299345 0.944597 0.000000
0.527787 0.980034 0.000000
1.000000 0.987016 0.000000
0.000000 1.000000 0.000000
0.012984 1.000000 0.000000
0.025697 1.000000 0.000000
0.037049 1.000000 0.000000
0.048855 1.000000 0.000000
0.063898 1.000000 0.000000
0.083510 1.000000 0.000000
0.110125 1.000000 0.000000
0.146259 1.000000 0.000000
0.203463 1.000000 0.000000
0.284932 1.000000 0.000000
0.523335 1.000000 0.000000
1.000000 1.000000 0.000000
0.000000 0.000000 0.082500
0.476666 0.000000 0.082500
0.715068 0.000000 0.082500
0.796537 0.000000 0.082500
0.853741 0.000000 0.082500
0.889875 0.000000 0.082500
0.916490 0.000000 0.082500
0.936102 0.000000 0.082500
0.951145 0.000000 0.082500
0.962951 0.000000 0.082500
0.974303 0.000000 0.082500
0.987016 0.000000 0.082500
1.000000 0.000000 0.082500
0.000000 0.012984 0.082500
0.472214 0.019966 0.082500
0.700655 0.055403 0.082500
0.783020 0.093570 0.082500
0.836330 0.157075 0.082500
0.868135 0.214639 0.082500
0.890839 0.275628 0.082500
0.909876 0.336424 0.082500
0.926076 0.390390 0.082500
0.943118 0.428982 0.082500
0.960808 0.455807 0.082500
0.980034 0.472214 0.082500
1.000000 0.476666 0.082500
0.000000 0.025697 0.082500
0.455807 0.039192 0.082500
0.673628 0.101816 0.082500
0.760907 0.172717 0.082500
0.798455 0.278051 0.082500
0.826318 0.361516 0.082500
0.837771 0.449166 0.082500
0.844170 0.521673 0.082500
0.849766 0.584774 0.082500
0.868816 0.633875 0.082500
0.898184 0.673628 0.082500
0.944597 0.700655 0.082500
1.000000 0.715068 0.082500
0.000000 0.037049 0.082500
0.428982 0.056882 0.082500
0.633875 0.131184 0.082500
0.718489 0.223027 0.082500
0.740140 0.337631 0.082500
0.757701 0.430590 0.082500
0.748273 0.520277 0.082500
0.744788 0.595482 0.082500
0.745601 0.663831 0.082500
0.776973 0.718489 0.082500
0.827283 0.760907 0.082500
0.906430 0.783020 0.082500
1.000000 0.796538 0.082500
0.000000 0.048855 0.082500
0.390390 0.073924 0.082500
0.584774 0.150234 0.082500
0.663831 0.254399 0.082500
0.677979 0.368679 0.082500
0.678583 0.465227 0.082500
0.652187 0.547259 0.082500
0.641068 0.617261 0.082500
0.631321 0.677979 0.082500
0.662369 0.740140 0.082500
0.721949 0.798455 0.082500
0.842925 0.836330 0.082500
1.000000 0.853741 0.082500
0.000000 0.063898 0.082500
0.336424 0.090124 0.082500
0.521674 0.155830 0.082500
0.595482 0.255212 0.082500
0.617261 0.358932 0.082500
0.605850 0.450766 0.082500
0.574231 0.529436 0.082500
0.549234 0.605850 0.082500
0.534773 0.678583 0.082500
0.569410 0.757701 0.082500
0.638484 0.826318 0.082500
0.785362 0.868135 0.082500
1.000000 0.889875 0.082500
0.000000 0.083510 0.082500
0.275628 0.109161 0.082500
0.449166 0.162229 0.082500
0.520277 0.251727 0.082500
0.547259 0.347813 0.082500
0.529436 0.425769 0.082500
0.500000 0.500000 0.082500
0.470564 0.574231 0.082500
0.452741 0.652187 0.082500
0.479723 0.748273 0.082500
0.550834 0.837771 0.082500
0.724373 0.890839 0.082500
1.000000 0.916490 0.082500
0.000000 0.110125 0.082500
0.214639 0.131865 0.082500
0.361516 0.173682 0.082500
0.430590 0.242299 0.082500
0.465227 0.321417 0.082500
0.450766 0.394150 0.082500
0.425769 0.470564 0.082500
0.394150 0.549234 0.082500
0.382739 0.641068 0.082500
0.404519 0.744788 0.082500
0.478326 0.844170 0.082500
0.663577 0.909876 0.082500
1.000000 0.936102 0.082500
0.000000 0.146259 0.082500
0.157075 0.163670 0.082500
0.278051 0.201545 0.082500
0.337631 0.259859 0.082500
0.368679 0.322021 0.082500
0.358932 0.382739 0.082500
0.347813 0.452741 0.082500
0.321417 0.534773 0.082500
0.322021 0.631321 0.082500
0.336169 0.745601 0.082500
0.415226 0.849766 0.082500
0.609611 0.926076 0.082500
1.000000 0.951145 0.082500
0.000000 0.203463 0.082500
0.093570 0.216980 0.082500
0.172717 0.239093 0.082500
0.223027 0.281511 0.082500
0.254399 0.336169 0.082500
0.255212 0.404519 0.082500
0.251727 0.479723 0.082500
0.242299 0.569410 0.082500
0.259859 0.662369 0.082500
0.281511 0.776973 0.082500
0.366125 0.868816 0.082500
0.571020 0.943119 0.082500
1.000000 0.962951 0.082500
0.000000 0.284932 0.082500
0.055403 0.299345 0.082500
0.101816 0.326372 0.082500
0.131184 0.366125 0.082500
0.150234 0.415226 0.082500
0.155830 0.478326 0.082500
0.162229 0.550834 0.082500
0.173682 0.638484 0.082500
0.201545 0.721949 0.082500
0.239093 0.827283 0.082500
0.326372 0.898184 0.082500
0.544194 0.960808 0.082500
1.000000 0.974303 0.082500
0.000000 0.523335 0.082500
0.019966 0.527787 0.082500
0.039192 0.544194 0.082500
0.056881 0.571020 0.082500
0.073924 0.609611 0.082500
0.090124 0.663577 0.082500
0.109161 0.724373 0.082500
0.131865 0.785362 0.082500
0.163670 0.842925 0.082500
0.216980 0.906430 0.082500
0.299345 0.944597 0.082500
0.527787 0.980034 0.082500
1.000000 0.987016 0.082500
0.000000 1.000000 0.082500
0.012984 1.000000 0.082500
0.025697 1.000000 0.082500
0.037049 1.000000 0.082500
0.048855 1.000000 0.082500
0.063898 1.000000 0.082500
0.083510 1.000000 0.082500
0.110125 1.000000 0.082500
0.146259 1.000000 0.082500
0.203463 1.000000 0.082500
0.284932 1.000000 0.082500
0.523335 1.000000 0.082500
1.000000 1.000000 0.082500
0.000000 0.000000 0.165000
0.476666 0.000000 0.165000
0.715068 0.000000 0.165000
0.796537 0.000000 0.165000
0.853741 0.000000 0.165000
0.889875 0.000000 0.165000
0.916490 0.000000 0.165000
0.936102 0.000000 0.165000
0.951145 0.000000 0.165000
0.962951 0.000000 0.165000
0.974303 0.000000 0.165000
0.987016 0.000000 0.165000
1.000000 0.000000 0.165000
0.000000 0.012984 0.165000
0.472214 0.019966 0.165000
0.700655 0.055403 0.165000
0.783020 0.093570 0.165000
0.836330 0.157075 0.165000
0.868135 0.214639 0.165000
0.890839 0.275628 0.165000
0.909876 0.336424 0.165000
0.926076 0.390390 0.165000
0.943118 0.428982 0.165000
0.960808 0.455807 0.165000
0.980034 0.472214 0.165000
1.000000 0.476666 0.165000
0.000000 0.025697 0.165000
0.455807 0.039192 0.165000
[...]
POINT_DATA 845 
VECTORS pos float 
0.000000 0.000000 0.000000
0.476666 0.000000 0.000000
0.715068 0.000000 0.000000
0.796537 0.000000 0.000000
0.853741 0.000000 0.000000
0.889875 0.000000 0.000000
0.916490 0.000000 0.000000
0.936102 0.000000 0.000000
0.951145 0.000000 0.000000
0.962951 0.000000 0.000000
0.974303 0.000000 0.000000
0.987016 0.000000 0.000000
1.000000 0.000000 0.000000
0.000000 0.012984 0.000000
0.472214 0.019966 0.000000
0.700655 0.055403 0.000000
0.783020 0.093570 0.000000
0.836330 0.157075 0.000000
0.868135 0.214639 0.000000
0.890839 0.275628 0.000000
0.909876 0.336424 0.000000
0.926076 0.390390 0.000000
0.943118 0.428982 0.000000
0.960808 0.455807 0.000000
0.980034 0.472214 0.000000
1.000000 0.476666 0.000000
0.000000 0.025697 0.000000
0.455807 0.039192 0.000000
0.673628 0.101816 0.000000
0.760907 0.172717 0.000000
0.798455 0.278051 0.000000
0.826318 0.361516 0.000000
0.837771 0.449166 0.000000
0.844170 0.521673 0.000000
0.849766 0.584774 0.000000
0.868816 0.633875 0.000000
0.898184 0.673628 0.000000
0.944597 0.700655 0.000000
1.000000 0.715068 0.000000
0.000000 0.037049 0.000000
0.428982 0.056882 0.000000
0.633875 0.131184 0.000000
0.718489 0.223027 0.000000
0.740140 0.337631 0.000000
0.757701 0.430590 0.000000
0.748273 0.520277 0.000000
0.744788 0.595482 0.000000
0.745601 0.663831 0.000000
0.776973 0.718489 0.000000
0.827283 0.760907 0.000000
0.906430 0.783020 0.000000
1.000000 0.796538 0.000000
0.000000 0.048855 0.000000
0.390390 0.073924 0.000000
0.584774 0.150234 0.000000
0.663831 0.254399 0.000000
0.677979 0.368679 0.000000
0.678583 0.465227 0.000000
0.652187 0.547259 0.000000
0.641068 0.617261 0.000000
0.631321 0.677979 0.000000
0.662369 0.740140 0.000000
0.721949 0.798455 0.000000
0.842925 0.836330 0.000000
1.000000 0.853741 0.000000
0.000000 0.063898 0.000000
0.336424 0.090124 0.000000
0.521674 0.155830 0.000000
0.595482 0.255212 0.000000
0.617261 0.358932 0.000000
0.605850 0.450766 0.000000
0.574231 0.529436 0.000000
0.549234 0.605850 0.000000
0.534773 0.678583 0.000000
0.569410 0.757701 0.000000
0.638484 0.826318 0.000000
0.785362 0.868135 0.000000
1.000000 0.889875 0.000000
0.000000 0.083510 0.000000
0.275628 0.109161 0.000000
0.449166 0.162229 0.000000
0.520277 0.251727 0.000000
0.547259 0.347813 0.000000
0.529436 0.425769 0.000000
0.500000 0.500000 0.000000
0.470564 0.574231 0.000000
0.452741 0.652187 0.000000
0.479723 0.748273 0.000000
0.550834 0.837771 0.000000
0.724373 0.890839 0.000000
1.000000 0.916490 0.000000
0.000000 0.110125 0.000000
0.214639 0.131865 0.000000
0.361516 0.173682 0.000000
0.430590 0.242299 0.000000
0.465227 0.321417 0.000000
0.450766 0.394150 0.000000
0.425769 0.470564 0.000000
0.394150 0.549234 0.000000
0.382739 0.641068 0.000000
0.404519 0.744788 0.000000
0.478326 0.844170 0.000000
0.663577 0.909876 0.000000
1.000000 0.936102 0.000000
0.000000 0.146259 0.000000
0.157075 0.163670 0.000000
0.278051 0.201545 0.000000
0.337631 0.259859 0.000000
0.368679 0.322021 0.000000
0.358932 0.382739 0.000000
0.347813 0.452741 0.000000
0.321417 0.534773 0.000000
0.322021 0.631321 0.000000
0.336169 0.745601 0.000000
0.415226 0.849766 0.000000
0.609611 0.926076 0.000000
1.000000 0.951145 0.000000
0.000000 0.203463 0.000000
0.093570 0.216980 0.000000
0.172717 0.239093 0.000000
0.223027 0.281511 0.000000
0.254399 0.336169 0.000000
0.255212 0.404519 0.000000
0.251727 0.479723 0.000000
0.242299 0.569410 0.000000
0.259859 0.662369 0.000000
0.281511 0.776973 0.000000
0.366125 0.868816 0.000000
0.571020 0.943119 0.000000
1.000000 0.962951 0.000000
0.000000 0.284932 0.000000
0.055403 0.299345 0.000000
0.101816 0.326372 0.000000
0.131184 0.366125 0.000000
0.150234 0.415226 0.000000
0.155830 0.478326 0.000000
0.162229 0.550834 0.000000
0.173682 0.638484 0.000000
0.201545 0.721949 0.000000
0.239093 0.827283 0.000000
0.326372 0.898184 0.000000
0.544194 0.960808 0.000000
1.000000 0.974303 0.000000
0.000000 0.523335 0.000000
0.019966 0.527787 0.000000
0.039192 0.544194 0.000000
0.056881 0.571020 0.000000
0.073924 0.609611 0.000000
0.090124 0.663577 0.000000
0.109161 0.724373 0.000000
0.131865 0.785362 0.000000
0.163670 0.842925 0.000000
0.216980 0.906430 0.000000
0.299345 0.944597 0.000000
0.527787 0.980034 0.000000
1.000000 0.987016 0.000000
0.000000 1.000000 0.000000
0.012984 1.000000 0.000000
0.025697 1.000000 0.000000
0.037049 1.000000 0.000000
0.048855 1.000000 0.000000
0.063898 1.000000 0.000000
0.083510 1.000000 0.000000
0.110125 1.000000 0.000000
0.146259 1.000000 0.000000
0.203463 1.000000 0.000000
0.284932 1.000000 0.000000
0.523335 1.000000 0.000000
1.000000 1.000000 0.000000
0.000000 0.000000 0.082500
0.476666 0.000000 0.082500
0.715068 0.000000 0.082500
0.796537 0.000000 0.082500
0.853741 0.000000 0.082500
0.889875 0.000000 0.082500
0.916490 0.000000 0.082500
0.936102 0.000000 0.082500
0.951145 0.000000 0.082500
0.962951 0.000000 0.082500
0.974303 0.000000 0.082500
0.987016 0.000000 0.082500
1.000000 0.000000 0.082500
0.000000 0.012984 0.082500
0.472214 0.019966 0.082500
0.700655 0.055403 0.082500
0.783020 0.093570 0.082500
0.836330 0.157075 0.082500
0.868135 0.214639 0.082500
0.890839 0.275628 0.082500
0.909876 0.336424 0.082500
0.926076 0.390390 0.082500
0.943118 0.428982 0.082500
0.960808 0.455807 0.082500
0.980034 0.472214 0.082500
1.000000 0.476666 0.082500
0.000000 0.025697 0.082500
0.455807 0.039192 0.082500
0.673628 0.101816 0.082500
0.760907 0.172717 0.082500
0.798455 0.278051 0.082500
0.826318 0.361516 0.082500
0.837771 0.449166 0.082500
0.844170 0.521673 0.082500
0.849766 0.584774 0.082500
0.868816 0.633875 0.082500
0.898184 0.673628 0.082500
0.944597 0.700655 0.082500
1.000000 0.715068 0.082500
0.000000 0.037049 0.082500
0.428982 0.056882 0.082500
0.633875 0.131184 0.082500
0.718489 0.223027 0.082500
0.740140 0.337631 0.082500
0.757701 0.430590 0.082500
0.748273 0.520277 0.082500
0.744788 0.595482 0.082500
0.745601 0.663831 0.082500
0.776973 0.718489 0.082500
0.827283 0.760907 0.082500
0.906430 0.783020 0.082500
1.000000 0.796538 0.082500
0.000000 0.048855 0.082500
0.390390 0.073924 0.082500
0.584774 0.150234 0.082500
0.663831 0.254399 0.082500
0.677979 0.368679 0.082500
0.678583 0.465227 0.082500
0.652187 0.547259 0.082500
0.641068 0.617261 0.082500
0.631321 0.677979 0.082500
0.662369 0.740140 0.082500
0.721949 0.798455 0.082500
0.842925 0.836330 0.082500
1.000000 0.853741 0.082500
0.000000 0.063898 0.082500
0.336424 0.090124 0.082500
0.521674 0.155830 0.082500
0.595482 0.255212 0.082500
0.617261 0.358932 0.082500
0.605850 0.450766 0.082500
0.574231 0.529436 0.082500
0.549234 0.605850 0.082500
0.534773 0.678583 0.082500
0.569410 0.757701 0.082500
0.638484 0.826318 0.082500
0.785362 0.868135 0.082500
1.000000 0.889875 0.082500
0.000000 0.083510 0.082500
0.275628 0.109161 0.082500
0.449166 0.162229 0.082500
0.520277 0.251727 0.082500
0.547259 0.347813 0.082500
0.529436 0.425769 0.082500
0.500000 0.500000 0.082500
0.470564 0.574231 0.082500
0.452741 0.652187 0.082500
0.479723 0.748273 0.082500
0.550834 0.837771 0.082500
0.724373 0.890839 0.082500
1.000000 0.916490 0.082500
0.000000 0.110125 0.082500
0.214639 0.131865 0.082500
0.361516 0.173682 0.082500
0.430590 0.242299 0.082500
0.465227 0.321417 0.082500
0.450766 0.394150 0.082500
0.425769 0.470564 0.082500
0.394150 0.549234 0.082500
0.382739 0.641068 0.082500
0.404519 0.744788 0.082500
0.478326 0.844170 0.082500
0.663577 0.909876 0.082500
1.000000 0.936102 0.082500
0.000000 0.146259 0.082500
0.157075 0.163670 0.082500
0.278051 0.201545 0.082500
0.337631 0.259859 0.082500
0.368679 0.322021 0.082500
0.358932 0.382739 0.082500
0.347813 0.452741 0.082500
0.321417 0.534773 0.082500
0.322021 0.631321 0.082500
0.336169 0.745601 0.082500
0.415226 0.849766 0.082500
0.609611 0.926076 0.082500
1.000000 0.951145 0.082500
0.000000 0.203463 0.082500
0.093570 0.216980 0.082500
0.172717 0.239093 0.082500
0.223027 0.281511 0.082500
0.254399 0.336169 0.082500
0.255212 0.404519 0.082500
0.251727 0.479723 0.082500
0.242299 0.569410 0.082500
0.259859 0.662369 0.082500
0.281511 0.776973 0.082500
0.366125 0.868816 0.082500
0.571020 0.943119 0.082500
1.000000 0.962951 0.082500
0.000000 0.284932 0.082500
0.055403 0.299345 0.082500
0.101816 0.326372 0.082500
0.131184 0.366125 0.082500
0.150234 0.415226 0.082500
0.155830 0.478326 0.082500
0.162229 0.550834 0.082500
0.173682 0.638484 0.082500
0.201545 0.721949 0.082500
0.239093 0.827283 0.082500
0.326372 0.898184 0.082500
0.544194 0.960808 0.082500
1.000000 0.974303 0.082500
0.000000 0.523335 0.082500
0.019966 0.527787 0.082500
0.039192 0.544194 0.082500
0.056881 0.571020 0.082500
0.073924 0.609611 0.082500
0.090124 0.663577 0.082500
0.109161 0.724373 0.082500
0.131865 0.785362 0.082500
0.163670 0.842925 0.082500
0.216980 0.906430 0.082500
0.299345 0.944597 0.082500
0.527787 0.980034 0.082500
1.000000 0.987016 0.082500
0.000000 1.000000 0.082500
0.012984 1.000000 0.082500
0.025697 1.000000 0.082500
0.037049 1.000000 0.082500
0.048855 1.000000 0.082500
0.063898 1.000000 0.082500
0.083510 1.000000 0.082500
0.110125 1.000000 0.082500
0.146259 1.000000 0.082500
0.203463 1.000000 0.082500
0.284932 1.000000 0.082500
0.523335 1.000000 0.082500
1.000000 1.000000 0.082500
0.000000 0.000000 0.165000
0.476666 0.000000 0.165000
0.715068 0.000000 0.165000
0.796537 0.000000 0.165000
0.853741 0.000000 0.165000
0.889875 0.000000 0.165000
0.916490 0.000000 0.165000
0.936102 0.000000 0.165000
0.951145 0.000000 0.165000
0.962951 0.000000 0.165000
0.974303 0.000000 0.165000
0.987016 0.000000 0.165000
1.000000 0.000000 0.165000
0.000000 0.012984 0.165000
0.472214 0.019966 0.165000
0.700655 0.055403 0.165000
0.783020 0.093570 0.165000
0.836330 0.157075 0.165000
0.868135 0.214639 0.165000
0.890839 0.275628 0.165000
0.909876 0.336424 0.165000
0.926076 0.390390 0.165000
0.943118 0.428982 0.165000
0.960808 0.455807 0.165000
0.980034 0.472214 0.165000
1.000000 0.476666 0.165000
0.000000 0.025697 0.165000
0.455807 0.039192 0.165000
0.673628 0.101816 0.165000
0.760907 0.172717 0.165000
0.798455 0.278051 0.165000
0.826318 0.361516 0.165000
0.837771 0.449166 0.165000
0.844170 0.521673 0.165000
0.849766 0.584774 0.165000
0.868816 0.633875 0.165000
0.898184 0.673628 0.165000
0.944597 0.700655 0.165000
1.000000 0.715068 0.165000
0.000000 0.037049 0.165000
0.428982 0.056882 0.165000
0.633875 0.131184 0.165000
0.718489 0.223027 0.165000
0.740140 0.337631 0.165000
0.757701 0.430590 0.165000
0.748273 0.520277 0.165000
0.744788 0.595482 0.165000
0.745601 0.663831 0.165000
0.776973 0.718489 0.165000
0.827283 0.760907 0.165000
0.906430 0.783020 0.165000
1.000000 0.796538 0.165000
0.000000 0.048855 0.165000
0.390390 0.073924 0.165000
0.584774 0.150234 0.165000
0.663831 0.254399 0.165000
0.677979 0.368679 0.165000
0.678583 0.465227 0.165000
0.652187 0.547259 0.165000
0.641068 0.617261 0.165000
0.631321 0.677979 0.165000
0.662369 0.740140 0.165000
0.721949 0.798455 0.165000
0.842925 0.836330 0.165000
1.000000 0.853741 0.165000
0.000000 0.063898 0.165000
0.336424 0.090124 0.165000
0.521674 0.155830 0.165000
0.595482 0.255212 0.165000
0.617261 0.358932 0.165000
0.605850 0.450766 0.165000
0.574231 0.529436 0.165000
0.549234 0.605850 0.165000
0.534773 0.678583 0.165000
0.569410 0.757701 0.165000
0.638484 0.826318 0.165000
0.785362 0.868135 0.165000
1.000000 0.889875 0.165000
0.000000 0.083510 0.165000
0.275628 0.109161 0.165000
0.449166 0.162229 0.165000
0.520277 0.251727 0.165000
0.547259 0.347813 0.165000
0.529436 0.425769 0.165000
0.500000 0.500000 0.165000
0.470564 0.574231 0.165000
0.452741 0.652187 0.165000
0.479723 0.748273 0.165000
0.550834 0.837771 0.165000
0.724373 0.890839 0.165000
1.000000 0.916490 0.165000
0.000000 0.110125 0.165000
0.214639 0.131865 0.165000
0.361516 0.173682 0.165000
0.430590 0.242299 0.165000
0.465227 0.321417 0.165000
0.450766 0.394150 0.165000
0.425769 0.470564 0.165000
0.394150 0.549234 0.165000
0.382739 0.641068 0.165000
0.404519 0.744788 0.165000
0.478326 0.844170 0.165000
0.663577 0.909876 0.165000
1.000000 0.936102 0.165000
0.000000 0.146259 0.165000
0.157075 0.163670 0.165000
0.278051 0.201545 0.165000
0.337631 0.259859 0.165000
0.368679 0.322021 0.165000
0.358932 0.382739 0.165000
0.347813 0.452741 0.165000
0.321417 0.534773 0.165000
0.322021 0.631321 0.165000
0.336169 0.745601 0.165000
0.415226 0.849766 0.165000
0.609611 0.926076 0.165000
1.000000 0.951145 0.165000
0.000000 0.203463 0.165000
0.093570 0.216980 0.165000
0.172717 0.239093 0.165000
0.223027 0.281511 0.165000
0.254399 0.336169 0.165000
0.255212 0.404519 0.165000
0.251727 0.479723 0.165000
0.242299 0.569410 0.165000
0.259859 0.662369 0.165000
0.281511 0.776973 0.165000
0.366125 0.868816 0.165000
0.571020 0.943119 0.165000
1.000000 0.962951 0.165000
0.000000 0.284932 0.165000
0.055403 0.299345 0.165000
0.101816 0.326372 0.165000
0.131184 0.366125 0.165000
0.150234 0.415226 0.165000
0.155830 0.478326 0.165000
0.162229 0.550834 0.165000
0.173682 0.638484 0.165000
0.201545 0.721949 0.165000
0.239093 0.827283 0.165000
0.326372 0.898184 0.165000
0.544194 0.960808 0.165000
1.000000 0.974303 0.165000
0.000000 0.523335 0.165000
0.019966 0.527787 0.165000
0.039192 0.544194 0.165000
0.056881 0.571020 0.165000
0.073924 0.609611 0.165000
0.090124 0.663577 0.165000
0.109161 0.724373 0.165000
0.131865 0.785362 0.165000
0.163670 0.842925 0.165000
0.216980 0.906430 0.165000
0.299345 0.944597 0.165000
0.527787 0.980034 0.165000
1.000000 0.987016 0.165000
0.000000 1.000000 0.165000
0.012984 1.000000 0.165000
0.025697 1.000000 0.165000
0.037049 1.000000 0.165000
0.048855 1.000000 0.165000
0.063898 1.000000 0.165000
0.083510 1.000000 0.165000
0.110125 1.000000 0.165000
0.146259 1.000000 0.165000
0.203463 1.000000 0.165000
0.284932 1.000000 0.165000
0.523335 1.000000 0.165000
1.000000 1.000000 0.165000
0.000000 0.000000 0.247500
0.476666 0.000000 0.247500
0.715068 0.000000 0.247500
0.796537 0.000000 0.247500
0.853741 0.000000 0.247500
0.889875 0.000000 0.247500
0.916490 0.000000 0.247500
0.936102 0.000000 0.247500
0.951145 0.000000 0.247500
0.962951 0.000000 0.247500
0.974303 0.000000 0.247500
0.987016 0.000000 0.247500
1.000000 0.000000 0.247500
0.000000 0.012984 0.247500
0.472214 0.019966 0.247500
0.700655 0.055403 0.247500
0.783020 0.093570 0.247500
0.836330 0.157075 0.247500
0.868135 0.214639 0.247500
0.890839 0.275628 0.247500
0.909876 0.336424 0.247500
0.926076 0.390390 0.247500
0.943118 0.428982 0.247500
0.960808 0.455807 0.247500
0.980034 0.472214 0.247500
1.000000 0.476666 0.247500
0.000000 0.025697 0.247500
0.455807 0.039192 0.247500
0.673628 0.101816 0.247500
0.760907 0.172717 0.247500
0.798455 0.278051 0.247500
0.826318 0.361516 0.247500
0.837771 0.449166 0.247500
0.844170 0.521673 0.247500
0.849766 0.584774 0.247500
0.868816 0.633875 0.247500
0.898184 0.673628 0.247500
0.944597 0.700655 0.247500
1.000000 0.715068 0.247500
0.000000 0.037049 0.247500
0.428982 0.056882 0.247500
0.633875 0.131184 0.247500
0.718489 0.223027 0.247500
0.740140 0.337631 0.247500
0.757701 0.430590 0.247500
0.748273 0.520277 0.247500
0.744788 0.595482 0.247500
0.745601 0.663831 0.247500
0.776973 0.718489 0.247500
0.827283 0.760907 0.247500
0.906430 0.783020 0.247500
1.000000 0.796538 0.247500
0.000000 0.048855 0.247500
0.390390 0.073924 0.247500
0.584774 0.150234 0.247500
0.663831 0.254399 0.247500
0.677979 0.368679 0.247500
0.678583 0.465227 0.247500
0.652187 0.547259 0.247500
0.641068 0.617261 0.247500
0.631321 0.677979 0.247500
0.662369 0.740140 0.247500
0.721949 0.798455 0.247500
0.842925 0.836330 0.247500
1.000000 0.853741 0.247500
0.000000 0.063898 0.247500
0.336424 0.090124 0.247500
0.521674 0.155830 0.247500
0.595482 0.255212 0.247500
0.617261 0.358932 0.247500
0.605850 0.450766 0.247500
0.574231 0.529436 0.247500
0.549234 0.605850 0.247500
0.534773 0.678583 0.247500
0.569410 0.757701 0.247500
0.638484 0.826318 0.247500
0.785362 0.868135 0.247500
1.000000 0.889875 0.247500
0.000000 0.083510 0.247500
0.275628 0.109161 0.247500
0.449166 0.162229 0.247500
0.520277 0.251727 0.247500
0.547259 0.347813 0.247500
0.529436 0.425769 0.247500
0.500000 0.500000 0.247500
0.470564 0.574231 0.247500
0.452741 0.652187 0.247500
0.479723 0.748273 0.247500
0.550834 0.837771 0.247500
0.724373 0.890839 0.247500
1.000000 0.916490 0.247500
0.000000 0.110125 0.247500
0.214639 0.131865 0.247500
0.361516 0.173682 0.247500
0.430590 0.242299 0.247500
0.465227 0.321417 0.247500
0.450766 0.394150 0.247500
0.425769 0.470564 0.247500
0.394150 0.549234 0.247500
0.382739 0.641068 0.247500
0.404519 0.744788 0.247500
0.478326 0.844170 0.247500
0.663577 0.909876 0.247500
1.000000 0.936102 0.247500
0.000000 0.146259 0.247500
0.157075 0.163670 0.247500
0.278051 0.201545 0.247500
0.337631 0.259859 0.247500
0.368679 0.322021 0.247500
0.358932 0.382739 0.247500
0.347813 0.452741 0.247500
0.321417 0.534773 0.247500
0.322021 0.631321 0.247500
0.336169 0.745601 0.247500
0.415226 0.849766 0.247500
0.609611 0.926076 0.247500
1.000000 0.951145 0.247500
0.000000 0.203463 0.247500
0.093570 0.216980 0.247500
0.172717 0.239093 0.247500
0.223027 0.281511 0.247500
0.254399 0.336169 0.247500
0.255212 0.404519 0.247500
0.251727 0.479723 0.247500
0.242299 0.569410 0.247500
0.259859 0.662369 0.247500
0.281511 0.776973 0.247500
0.366125 0.868816 0.247500
0.571020 0.943119 0.247500
1.000000 0.962951 0.247500
0.000000 0.284932 0.247500
0.055403 0.299345 0.247500
0.101816 0.326372 0.247500
0.131184 0.366125 0.247500
0.150234 0.415226 0.247500
0.155830 0.478326 0.247500
0.162229 0.550834 0.247500
0.173682 0.638484 0.247500
0.201545 0.721949 0.247500
0.239093 0.827283 0.247500
0.326372 0.898184 0.247500
0.544194 0.960808 0.247500
1.000000 0.974303 0.247500
0.000000 0.523335 0.247500
0.019966 0.527787 0.247500
0.039192 0.544194 0.247500
0.056881 0.571020 0.247500
0.073924 0.609611 0.247500
0.090124 0.663577 0.247500
0.109161 0.724373 0.247500
0.131865 0.785362 0.247500
0.163670 0.842925 0.247500
0.216980 0.906430 0.247500
0.299345 0.944597 0.247500
0.527787 0.980034 0.247500
1.000000 0.987016 0.247500
0.000000 1.000000 0.247500
0.012984 1.000000 0.247500
0.025697 1.000000 0.247500
0.037049 1.000000 0.247500
0.048855 1.000000 0.247500
0.063898 1.000000 0.247500
0.083510 1.000000 0.247500
0.110125 1.000000 0.247500
0.146259 1.000000 0.247500
0.203463 1.000000 0.247500
0.284932 1.000000 0.247500
0.523335 1.000000 0.247500
1.000000 1.000000 0.247500
0.000000 0.000000 0.330000
0.476666 0.000000 0.330000
0.715068 0.000000 0.330000
0.796537 0.000000 0.330000
0.853741 0.000000 0.330000
0.889875 0.000000 0.330000
0.916490 0.000000 0.330000
0.936102 0.000000 0.330000
0.951145 0.000000 0.330000
0.962951 0.000000 0.330000
0.974303 0.000000 0.330000
0.987016 0.000000 0.330000
1.000000 0.000000 0.330000
0.000000 0.012984 0.330000
0.472214 0.019966 0.330000
0.700655 0.055403 0.330000
0.783020 0.093570 0.330000
0.836330 0.157075 0.330000
0.868135 0.214639 0.330000
0.890839 0.275628 0.330000
0.909876 0.336424 0.330000
0.926076 0.390390 0.330000
0.943118 0.428982 0.330000
0.960808 0.455807 0.330000
0.980034 0.472214 0.330000
1.000000 0.476666 0.330000
0.000000 0.025697 0.330000
0.455807 0.039192 0.330000
0.673628 0.101816 0.330000
0.760907 0.172717 0.330000
0.798455 0.278051 0.330000
0.826318 0.361516 0.330000
0.837771 0.449166 0.330000
0.844170 0.521673 0.330000
0.849766 0.584774 0.330000
0.868816 0.633875 0.330000
0.898184 0.673628 0.330000
0.944597 0.700655 0.330000
1.000000 0.715068 0.330000
0.000000 0.037049 0.330000
0.428982 0.056882 0.330000
0.633875 0.131184 0.330000
0.718489 0.223027 0.330000
0.740140 0.337631 0.330000
0.757701 0.430590 0.330000
0.748273 0.520277 0.330000
0.744788 0.595482 0.330000
0.745601 0.663831 0.330000
0.776973 0.718489 0.330000
0.827283 0.760907 0.330000
0.906430 0.783020 0.330000
1.000000 0.796538 0.330000
0.000000 0.048855 0.330000
0.390390 0.073924 0.330000
0.584774 0.150234 0.330000
0.663831 0.254399 0.330000
0.677979 0.368679 0.330000
0.678583 0.465227 0.330000
0.652187 0.547259 0.330000
0.641068 0.617261 0.330000
0.631321 0.677979 0.330000
0.662369 0.740140 0.330000
0.721949 0.798455 0.330000