# vtk DataFile Version 2.0
Mesh for Fierro
ASCII 
DATASET UNSTRUCTURED_GRID

POINTS 845 float
0.000000 0.000000 0.000000
0.564764 0.000000 0.000000
0.879221 0.000000 0.000000
0.909305 0.000000 0.000000
0.931152 0.000000 0.000000
0.947638 0.000000 0.000000
0.960421 0.000000 0.000000
0.968775 0.000000 0.000000
0.974310 0.000000 0.000000
0.978941 0.000000 0.000000
0.983492 0.000000 0.000000
0.991527 0.000000 0.000000
1.000000 0.000000 0.000000
0.000000 0.008473 0.000000
0.583144 0.017045 0.000000
0.841743 0.078055 0.000000
0.865087 0.184101 0.000000
0.894803 0.261349 0.000000
0.904835 0.351788 0.000000
0.913483 0.433932 0.000000
0.922163 0.508487 0.000000
0.931421 0.567044 0.000000
0.944549 0.604712 0.000000
0.960422 0.622597 0.000000
0.982955 0.583144 0.000000
1.000000 0.564765 0.000000
0.000000 0.016508 0.000000
0.622597 0.039578 0.000000
0.791007 0.146571 0.000000
0.838735 0.275206 0.000000
0.843000 0.437819 0.000000
0.846334 0.528363 0.000000
0.839904 0.608968 0.000000
0.821099 0.661575 0.000000
0.809514 0.702725 0.000000
0.817253 0.742620 0.000000
0.853429 0.791007 0.000000
0.921946 0.841743 0.000000
1.000000 0.879222 0.000000
0.000000 0.021059 0.000000
0.604712 0.055451 0.000000
0.742620 0.182747 0.000000
0.809992 0.331560 0.000000
0.763298 0.470814 0.000000
0.760770 0.558684 0.000000
0.716336 0.632628 0.000000
0.673611 0.698214 0.000000
0.656134 0.760253 0.000000
0.668440 0.809992 0.000000
0.724794 0.838735 0.000000
0.815900 0.865087 0.000000
1.000000 0.909305 0.000000
0.000000 0.025690 0.000000
0.567044 0.068579 0.000000
0.702725 0.190486 0.000000
0.760253 0.343866 0.000000
0.702098 0.469434 0.000000
0.669959 0.566213 0.000000
0.602767 0.616334 0.000000
0.565329 0.665215 0.000000
0.530566 0.702098 0.000000
0.529186 0.763298 0.000000
0.562181 0.843000 0.000000
0.738652 0.894803 0.000000
1.000000 0.931152 0.000000
0.000000 0.031225 0.000000
0.508486 0.077837 0.000000
0.661575 0.178901 0.000000
0.698214 0.326389 0.000000
0.665215 0.434671 0.000000
0.613359 0.516233 0.000000
0.545829 0.561476 0.000000
0.483767 0.613359 0.000000
0.433787 0.669959 0.000000
0.441316 0.760770 0.000000
0.471637 0.846334 0.000000
0.648213 0.904835 0.000000
1.000000 0.947638 0.000000
0.000000 0.039579 0.000000
0.433931 0.086517 0.000000
0.608968 0.160096 0.000000
0.632627 0.283664 0.000000
0.616334 0.397233 0.000000
0.561476 0.454171 0.000000
0.500000 0.500000 0.000000
0.438523 0.545829 0.000000
0.383666 0.602767 0.000000
0.367372 0.716336 0.000000
0.391032 0.839904 0.000000
0.566070 0.913484 0.000000
1.000000 0.960421 0.000000
0.000000 0.052362 0.000000
0.351788 0.095165 0.000000
0.528363 0.153666 0.000000
0.558684 0.239230 0.000000
0.566213 0.330041 0.000000
0.516233 0.386641 0.000000
0.454171 0.438523 0.000000
0.386641 0.483767 0.000000
0.334785 0.565329 0.000000
0.301786 0.673611 0.000000
0.338425 0.821099 0.000000
0.491515 0.922163 0.000000
1.000000 0.968775 0.000000
0.000000 0.068848 0.000000
0.261349 0.105197 0.000000
0.437819 0.157000 0.000000
0.470814 0.236702 0.000000
0.469434 0.297902 0.000000
0.434671 0.334785 0.000000
0.397233 0.383666 0.000000
0.330040 0.433787 0.000000
0.297902 0.530566 0.000000
0.239747 0.656134 0.000000
0.297274 0.809514 0.000000
0.432957 0.931421 0.000000
1.000000 0.974310 0.000000
0.000000 0.090695 0.000000
0.184101 0.134913 0.000000
0.275206 0.161265 0.000000
0.331560 0.190008 0.000000
0.343866 0.239747 0.000000
0.326389 0.301786 0.000000
0.283665 0.367373 0.000000
0.239230 0.441316 0.000000
0.236702 0.529186 0.000000
0.190008 0.668440 0.000000
0.257380 0.817253 0.000000
0.395289 0.944549 0.000000
1.000000 0.978941 0.000000
0.000000 0.120779 0.000000
0.078055 0.158258 0.000000
0.146571 0.208993 0.000000
0.182747 0.257380 0.000000
0.190486 0.297274 0.000000
0.178901 0.338425 0.000000
0.160096 0.391032 0.000000
0.153666 0.471637 0.000000
0.157000 0.562181 0.000000
0.161265 0.724794 0.000000
0.208993 0.853429 0.000000
0.377404 0.960422 0.000000
1.000000 0.983492 0.000000
0.000000 0.435235 0.000000
0.017045 0.416856 0.000000
0.039578 0.377404 0.000000
0.055451 0.395289 0.000000
0.068578 0.432957 0.000000
0.077837 0.491515 0.000000
0.086516 0.566070 0.000000
0.095165 0.648213 0.000000
0.105197 0.738652 0.000000
0.134913 0.815900 0.000000
0.158257 0.921946 0.000000
0.416856 0.982955 0.000000
1.000000 0.991527 0.000000
0.000000 1.000000 0.000000
0.008473 1.000000 0.000000
0.016508 1.000000 0.000000
0.021059 1.000000 0.000000
0.025690 1.000000 0.000000
0.031225 1.000000 0.000000
0.039579 1.000000 0.000000
0.052362 1.000000 0.000000
0.068848 1.000000 0.000000
0.090695 1.000000 0.000000
0.120779 1.000000 0.000000
0.435235 1.000000 0.000000
1.000000 1.000000 0.000000
0.000000 0.000000 0.082500
0.564764 0.000000 0.082500
0.879221 0.000000 0.082500
0.909305 0.000000 0.082500
0.931152 0.000000 0.082500
0.947638 0.000000 0.082500
0.960421 0.000000 0.082500
0.968775 0.000000 0.082500
0.974310 0.000000 0.082500
0.978941 0.000000 0.082500
0.983492 0.000000 0.082500
0.991527 0.000000 0.082500
1.000000 0.000000 0.082500
0.000000 0.008473 0.082500
0.583144 0.017045 0.082500
0.841743 0.078055 0.082500
0.865087 0.184101 0.082500
0.894803 0.261349 0.082500
0.904835 0.351788 0.082500
0.913483 0.433932 0.082500
0.922163 0.508487 0.082500
0.931421 0.567044 0.082500
0.944549 0.604712 0.082500
0.960422 0.622597 0.082500
0.982955 0.583144 0.082500
1.000000 0.564765 0.082500
0.000000 0.016508 0.082500
0.622597 0.039578 0.082500
0.791007 0.146571 0.082500
0.838735 0.275206 0.082500
0.843000 0.437819 0.082500
0.846334 0.528363 0.082500
0.839904 0.608968 0.082500
0.821099 0.661575 0.082500
0.809514 0.702725 0.082500
0.817253 0.742620 0.082500
0.853429 0.791007 0.082500
0.921946 0.841743 0.082500
1.000000 0.879222 0.082500
0.000000 0.021059 0.082500
0.604712 0.055451 0.082500
0.742620 0.182747 0.082500
0.809992 0.331560 0.082500
0.763298 0.470814 0.082500
0.760770 0.558684 0.082500
0.716336 0.632628 0.082500
0.673611 0.698214 0.082500
0.656134 0.760253 0.082500
0.668440 0.809992 0.082500
0.724794 0.838735 0.082500
0.815900 0.865087 0.082500
1.000000 0.909305 0.082500
0.000000 0.025690 0.082500
0.567044 0.068579 0.082500
0.702725 0.190486 0.082500
0.760253 0.343866 0.082500
0.702098 0.469434 0.082500
0.669959 0.566213 0.082500
0.602767 0.616334 0.082500
0.565329 0.665215 0.082500
0.530566 0.702098 0.082500
0.529186 0.763298 0.082500
0.562181 0.843000 0.082500
0.738652 0.894803 0.082500
1.000000 0.931152 0.082500
0.000000 0.031225 0.082500
0.508486 0.077837 0.082500
0.661575 0.178901 0.082500
0.698214 0.326389 0.082500
0.665215 0.434671 0.082500
0.613359 0.516233 0.082500
0.545829 0.561476 0.082500
0.483767 0.613359 0.082500
0.433787 0.669959 0.082500
0.441316 0.760770 0.082500
0.471637 0.846334 0.082500
0.648213 0.904835 0.082500
1.000000 0.947638 0.082500
0.000000 0.039579 0.082500
0.433931 0.086517 0.082500
0.608968 0.160096 0.082500
0.632627 0.283664 0.082500
0.616334 0.397233 0.082500
0.561476 0.454171 0.082500
0.500000 0.500000 0.082500
0.438523 0.545829 0.082500
0.383666 0.602767 0.082500
0.367372 0.716336 0.082500
0.391032 0.839904 0.082500
0.566070 0.913484 0.082500
1.000000 0.960421 0.082500
0.000000 0.052362 0.082500
0.351788 0.095165 0.082500
0.528363 0.153666 0.082500
0.558684 0.239230 0.082500
0.566213 0.330041 0.082500
0.516233 0.386641 0.082500
0.454171 0.438523 0.082500
0.386641 0.483767 0.082500
0.334785 0.565329 0.082500
0.301786 0.673611 0.082500
0.338425 0.821099 0.082500
0.491515 0.922163 0.082500
1.000000 0.968775 0.082500
0.000000 0.068848 0.082500
0.261349 0.105197 0.082500
0.437819 0.157000 0.082500
0.470814 0.236702 0.082500
0.469434 0.297902 0.082500
0.434671 0.334785 0.082500
0.397233 0.383666 0.082500
0.330040 0.433787 0.082500
0.297902 0.530566 0.082500
0.239747 0.656134 0.082500
0.297274 0.809514 0.082500
0.432957 0.931421 0.082500
1.000000 0.974310 0.082500
0.000000 0.090695 0.082500
0.184101 0.134913 0.082500
0.275206 0.161265 0.082500
0.331560 0.190008 0.082500
0.343866 0.239747 0.082500
0.326389 0.301786 0.082500
0.283665 0.367373 0.082500
0.239230 0.441316 0.082500
0.236702 0.529186 0.082500
0.190008 0.668440 0.082500
0.257380 0.817253 0.082500
0.395289 0.944549 0.082500
1.000000 0.978941 0.082500
0.000000 0.120779 0.082500
0.078055 0.158258 0.082500
0.146571 0.208993 0.082500
0.182747 0.257380 0.082500
0.190486 0.297274 0.082500
0.178901 0.338425 0.082500
0.160096 0.391032 0.082500
0.153666 0.471637 0.082500
0.157000 0.562181 0.082500
0.161265 0.724794 0.082500
0.208993 0.853429 0.082500
0.377404 0.960422 0.082500
1.000000 0.983492 0.082500
0.000000 0.435235 0.082500
0.017045 0.416856 0.082500
0.039578 0.377404 0.082500
0.055451 0.395289 0.082500
0.068578 0.432957 0.082500
0.077837 0.491515 0.082500
0.086516 0.566070 0.082500
0.095165 0.648213 0.082500
0.105197 0.738652 0.082500
0.134913 0.815900 0.082500
0.158257 0.921946 0.082500
0.416856 0.982955 0.082500
1.000000 0.991527 0.082500
0.000000 1.000000 0.082500
0.008473 1.000000 0.082500
0.016508 1.000000 0.082500
0.021059 1.000000 0.082500
0.025690 1.000000 0.082500
0.031225 1.000000 0.082500
0.039579 1.000000 0.082500
0.052362 1.000000 0.082500
0.068848 1.000000 0.082500
0.090695 1.000000 0.082500
0.120779 1.000000 0.082500
0.435235 1.000000 0.082500
1.000000 1.000000 0.082500
0.000000 0.000000 0.165000
0.564764 0.000000 0.165000
0.879221 0.000000 0.165000
0.909305 0.000000 0.165000
0.931152 0.000000 0.165000
0.947638 0.000000 0.165000
0.960421 0.000000 0.165000
0.968775 0.000000 0.165000
0.974310 0.000000 0.165000
0.978941 0.000000 0.165000
0.983492 0.000000 0.165000
0.991527 0.000000 0.165000
1.000000 0.000000 0.165000
0.000000 0.008473 0.165000
0.583144 0.017045 0.165000
0.841743 0.078055 0.165000
0.865087 0.184101 0.165000
0.894803 0.261349 0.165000
0.904835 0.351788 0.165000
0.913483 0.433932 0.165000
0.922163 0.508487 0.165000
0.931421 0.567044 0.165000
0.944549 0.604712 0.165000
0.960422 0.622597 0.165000
0.982955 0.583144 0.165000
1.000000 0.564765 0.165000
0.000000 0.016508 0.165000
0.622597 0.039578 0.165000
[...]
POINT_DATA 845 
VECTORS pos float 
0.000000 0.000000 0.000000
0.564764 0.000000 0.000000
0.879221 0.000000 0.000000
0.909305 0.000000 0.000000
0.931152 0.000000 0.000000
0.947638 0.000000 0.000000
0.960421 0.000000 0.000000
0.968775 0.000000 0.000000
0.974310 0.000000 0.000000
0.978941 0.000000 0.000000
0.983492 0.000000 0.000000
0.991527 0.000000 0.000000
1.000000 0.000000 0.000000
0.000000 0.008473 0.000000
0.583144 0.017045 0.000000
0.841743 0.078055 0.000000
0.865087 0.184101 0.000000
0.894803 0.261349 0.000000
0.904835 0.351788 0.000000
0.913483 0.433932 0.000000
0.922163 0.508487 0.000000
0.931421 0.567044 0.000000
0.944549 0.604712 0.000000
0.960422 0.622597 0.000000
0.982955 0.583144 0.000000
1.000000 0.564765 0.000000
0.000000 0.016508 0.000000
0.622597 0.039578 0.000000
0.791007 0.146571 0.000000
0.838735 0.275206 0.000000
0.843000 0.437819 0.000000
0.846334 0.528363 0.000000
0.839904 0.608968 0.000000
0.821099 0.661575 0.000000
0.809514 0.702725 0.000000
0.817253 0.742620 0.000000
0.853429 0.791007 0.000000
0.921946 0.841743 0.000000
1.000000 0.879222 0.000000
0.000000 0.021059 0.000000
0.604712 0.055451 0.000000
0.742620 0.182747 0.000000
0.809992 0.331560 0.000000
0.763298 0.470814 0.000000
0.760770 0.558684 0.000000
0.716336 0.632628 0.000000
0.673611 0.698214 0.000000
0.656134 0.760253 0.000000
0.668440 0.809992 0.000000
0.724794 0.838735 0.000000
0.815900 0.865087 0.000000
1.000000 0.909305 0.000000
0.000000 0.025690 0.000000
0.567044 0.068579 0.000000
0.702725 0.190486 0.000000
0.760253 0.343866 0.000000
0.702098 0.469434 0.000000
0.669959 0.566213 0.000000
0.602767 0.616334 0.000000
0.565329 0.665215 0.000000
0.530566 0.702098 0.000000
0.529186 0.763298 0.000000
0.562181 0.843000 0.000000
0.738652 0.894803 0.000000
1.000000 0.931152 0.000000
0.000000 0.031225 0.000000
0.508486 0.077837 0.000000
0.661575 0.178901 0.000000
0.698214 0.326389 0.000000
0.665215 0.434671 0.000000
0.613359 0.516233 0.000000
0.545829 0.561476 0.000000
0.483767 0.613359 0.000000
0.433787 0.669959 0.000000
0.441316 0.760770 0.000000
0.471637 0.846334 0.000000
0.648213 0.904835 0.000000
1.000000 0.947638 0.000000
0.000000 0.039579 0.000000
0.433931 0.086517 0.000000
0.608968 0.160096 0.000000
0.632627 0.283664 0.000000
0.616334 0.397233 0.000000
0.561476 0.454171 0.000000
0.500000 0.500000 0.000000
0.438523 0.545829 0.000000
0.383666 0.602767 0.000000
0.367372 0.716336 0.000000
0.391032 0.839904 0.000000
0.566070 0.913484 0.000000
1.000000 0.960421 0.000000
0.000000 0.052362 0.000000
0.351788 0.095165 0.000000
0.528363 0.153666 0.000000
0.558684 0.239230 0.000000
0.566213 0.330041 0.000000
0.516233 0.386641 0.000000
0.454171 0.438523 0.000000
0.386641 0.483767 0.000000
0.334785 0.565329 0.000000
0.301786 0.673611 0.000000
0.338425 0.821099 0.000000
0.491515 0.922163 0.000000
1.000000 0.968775 0.000000
0.000000 0.068848 0.000000
0.261349 0.105197 0.000000
0.437819 0.157000 0.000000
0.470814 0.236702 0.000000
0.469434 0.297902 0.000000
0.434671 0.334785 0.000000
0.397233 0.383666 0.000000
0.330040 0.433787 0.000000
0.297902 0.530566 0.000000
0.239747 0.656134 0.000000
0.297274 0.809514 0.000000
0.432957 0.931421 0.000000
1.000000 0.974310 0.000000
0.000000 0.090695 0.000000
0.184101 0.134913 0.000000
0.275206 0.161265 0.000000
0.331560 0.190008 0.000000
0.343866 0.239747 0.000000
0.326389 0.301786 0.000000
0.283665 0.367373 0.000000
0.239230 0.441316 0.000000
0.236702 0.529186 0.000000
0.190008 0.668440 0.000000
0.257380 0.817253 0.000000
0.395289 0.944549 0.000000
1.000000 0.978941 0.000000
0.000000 0.120779 0.000000
0.078055 0.158258 0.000000
0.146571 0.208993 0.000000
0.182747 0.257380 0.000000
0.190486 0.297274 0.000000
0.178901 0.338425 0.000000
0.160096 0.391032 0.000000
0.153666 0.471637 0.000000
0.157000 0.562181 0.000000
0.161265 0.724794 0.000000
0.208993 0.853429 0.000000
0.377404 0.960422 0.000000
1.000000 0.983492 0.000000
0.000000 0.435235 0.000000
0.017045 0.416856 0.000000
0.039578 0.377404 0.000000
0.055451 0.395289 0.000000
0.068578 0.432957 0.000000
0.077837 0.491515 0.000000
0.086516 0.566070 0.000000
0.095165 0.648213 0.000000
0.105197 0.738652 0.000000
0.134913 0.815900 0.000000
0.158257 0.921946 0.000000
0.416856 0.982955 0.000000
1.000000 0.991527 0.000000
0.000000 1.000000 0.000000
0.008473 1.000000 0.000000
0.016508 1.000000 0.000000
0.021059 1.000000 0.000000
0.025690 1.000000 0.000000
0.031225 1.000000 0.000000
0.039579 1.000000 0.000000
0.052362 1.000000 0.000000
0.068848 1.000000 0.000000
0.090695 1.000000 0.000000
0.120779 1.000000 0.000000
0.435235 1.000000 0.000000
1.000000 1.000000 0.000000
0.000000 0.000000 0.082500
0.564764 0.000000 0.082500
0.879221 0.000000 0.082500
0.909305 0.000000 0.082500
0.931152 0.000000 0.082500
0.947638 0.000000 0.082500
0.960421 0.000000 0.082500
0.968775 0.000000 0.082500
0.974310 0.000000 0.082500
0.978941 0.000000 0.082500
0.983492 0.000000 0.082500
0.991527 0.000000 0.082500
1.000000 0.000000 0.082500
0.000000 0.008473 0.082500
0.583144 0.017045 0.082500
0.841743 0.078055 0.082500
0.865087 0.184101 0.082500
0.894803 0.261349 0.082500
0.904835 0.351788 0.082500
0.913483 0.433932 0.082500
0.922163 0.508487 0.082500
0.931421 0.567044 0.082500
0.944549 0.604712 0.082500
0.960422 0.622597 0.082500
0.982955 0.583144 0.082500
1.000000 0.564765 0.082500
0.000000 0.016508 0.082500
0.622597 0.039578 0.082500
0.791007 0.146571 0.082500
0.838735 0.275206 0.082500
0.843000 0.437819 0.082500
0.846334 0.528363 0.082500
0.839904 0.608968 0.082500
0.821099 0.661575 0.082500
0.809514 0.702725 0.082500
0.817253 0.742620 0.082500
0.853429 0.791007 0.082500
0.921946 0.841743 0.082500
1.000000 0.879222 0.082500
0.000000 0.021059 0.082500
0.604712 0.055451 0.082500
0.742620 0.182747 0.082500
0.809992 0.331560 0.082500
0.763298 0.470814 0.082500
0.760770 0.558684 0.082500
0.716336 0.632628 0.082500
0.673611 0.698214 0.082500
0.656134 0.760253 0.082500
0.668440 0.809992 0.082500
0.724794 0.838735 0.082500
0.815900 0.865087 0.082500
1.000000 0.909305 0.082500
0.000000 0.025690 0.082500
0.567044 0.068579 0.082500
0.702725 0.190486 0.082500
0.760253 0.343866 0.082500
0.702098 0.469434 0.082500
0.669959 0.566213 0.082500
0.602767 0.616334 0.082500
0.565329 0.665215 0.082500
0.530566 0.702098 0.082500
0.529186 0.763298 0.082500
0.562181 0.843000 0.082500
0.738652 0.894803 0.082500
1.000000 0.931152 0.082500
0.000000 0.031225 0.082500
0.508486 0.077837 0.082500
0.661575 0.178901 0.082500
0.698214 0.326389 0.082500
0.665215 0.434671 0.082500
0.613359 0.516233 0.082500
0.545829 0.561476 0.082500
0.483767 0.613359 0.082500
0.433787 0.669959 0.082500
0.441316 0.760770 0.082500
0.471637 0.846334 0.082500
0.648213 0.904835 0.082500
1.000000 0.947638 0.082500
0.000000 0.039579 0.082500
0.433931 0.086517 0.082500
0.608968 0.160096 0.082500
0.632627 0.283664 0.082500
0.616334 0.397233 0.082500
0.561476 0.454171 0.082500
0.500000 0.500000 0.082500
0.438523 0.545829 0.082500
0.383666 0.602767 0.082500
0.367372 0.716336 0.082500
0.391032 0.839904 0.082500
0.566070 0.913484 0.082500
1.000000 0.960421 0.082500
0.000000 0.052362 0.082500
0.351788 0.095165 0.082500
0.528363 0.153666 0.082500
0.558684 0.239230 0.082500
0.566213 0.330041 0.082500
0.516233 0.386641 0.082500
0.454171 0.438523 0.082500
0.386641 0.483767 0.082500
0.334785 0.565329 0.082500
0.301786 0.673611 0.082500
0.338425 0.821099 0.082500
0.491515 0.922163 0.082500
1.000000 0.968775 0.082500
0.000000 0.068848 0.082500
0.261349 0.105197 0.082500
0.437819 0.157000 0.082500
0.470814 0.236702 0.082500
0.469434 0.297902 0.082500
0.434671 0.334785 0.082500
0.397233 0.383666 0.082500
0.330040 0.433787 0.082500
0.297902 0.530566 0.082500
0.239747 0.656134 0.082500
0.297274 0.809514 0.082500
0.432957 0.931421 0.082500
1.000000 0.974310 0.082500
0.000000 0.090695 0.082500
0.184101 0.134913 0.082500
0.275206 0.161265 0.082500
0.331560 0.190008 0.082500
0.343866 0.239747 0.082500
0.326389 0.301786 0.082500
0.283665 0.367373 0.082500
0.239230 0.441316 0.082500
0.236702 0.529186 0.082500
0.190008 0.668440 0.082500
0.257380 0.817253 0.082500
0.395289 0.944549 0.082500
1.000000 0.978941 0.082500
0.000000 0.120779 0.082500
0.078055 0.158258 0.082500
0.146571 0.208993 0.082500
0.182747 0.257380 0.082500
0.190486 0.297274 0.082500
0.178901 0.338425 0.082500
0.160096 0.391032 0.082500
0.153666 0.471637 0.082500
0.157000 0.562181 0.082500
0.161265 0.724794 0.082500
0.208993 0.853429 0.082500
0.377404 0.960422 0.082500
1.000000 0.983492 0.082500
0.000000 0.435235 0.082500
0.017045 0.416856 0.082500
0.039578 0.377404 0.082500
0.055451 0.395289 0.082500
0.068578 0.432957 0.082500
0.077837 0.491515 0.082500
0.086516 0.566070 0.082500
0.095165 0.648213 0.082500
0.105197 0.738652 0.082500
0.134913 0.815900 0.082500
0.158257 0.921946 0.082500
0.416856 0.982955 0.082500
1.000000 0.991527 0.082500
0.000000 1.000000 0.082500
0.008473 1.000000 0.082500
0.016508 1.000000 0.082500
0.021059 1.000000 0.082500
0.025690 1.000000 0.082500
0.031225 1.000000 0.082500
0.039579 1.000000 0.082500
0.052362 1.000000 0.082500
0.068848 1.000000 0.082500
0.090695 1.000000 0.082500
0.120779 1.000000 0.082500
0.435235 1.000000 0.082500
1.000000 1.000000 0.082500
0.000000 0.000000 0.165000
0.564764 0.000000 0.165000
0.879221 0.000000 0.165000
0.909305 0.000000 0.165000
0.931152 0.000000 0.165000
0.947638 0.000000 0.165000
0.960421 0.000000 0.165000
0.968775 0.000000 0.165000
0.974310 0.000000 0.165000
0.978941 0.000000 0.165000
0.983492 0.000000 0.165000
0.991527 0.000000 0.165000
1.000000 0.000000 0.165000
0.000000 0.008473 0.165000
0.583144 0.017045 0.165000
0.841743 0.078055 0.165000
0.865087 0.184101 0.165000
0.894803 0.261349 0.165000
0.904835 0.351788 0.165000
0.913483 0.433932 0.165000
0.922163 0.508487 0.165000
0.931421 0.567044 0.165000
0.944549 0.604712 0.165000
0.960422 0.622597 0.165000
0.982955 0.583144 0.165000
1.000000 0.564765 0.165000
0.000000 0.016508 0.165000
0.622597 0.039578 0.165000
0.791007 0.146571 0.165000
0.838735 0.275206 0.165000
0.843000 0.437819 0.165000
0.846334 0.528363 0.165000
0.839904 0.608968 0.165000
0.821099 0.661575 0.165000
0.809514 0.702725 0.165000
0.817253 0.742620 0.165000
0.853429 0.791007 0.165000
0.921946 0.841743 0.165000
1.000000 0.879222 0.165000
0.000000 0.021059 0.165000
0.604712 0.055451 0.165000
0.742620 0.182747 0.165000
0.809992 0.331560 0.165000
0.763298 0.470814 0.165000
0.760770 0.558684 0.165000
0.716336 0.632628 0.165000
0.673611 0.698214 0.165000
0.656134 0.760253 0.165000
0.668440 0.809992 0.165000
0.724794 0.838735 0.165000
0.815900 0.865087 0.165000
1.000000 0.909305 0.165000
0.000000 0.025690 0.165000
0.567044 0.068579 0.165000
0.702725 0.190486 0.165000
0.760253 0.343866 0.165000
0.702098 0.469434 0.165000
0.669959 0.566213 0.165000
0.602767 0.616334 0.165000
0.565329 0.665215 0.165000
0.530566 0.702098 0.165000
0.529186 0.763298 0.165000
0.562181 0.843000 0.165000
0.738652 0.894803 0.165000
1.000000 0.931152 0.165000
0.000000 0.031225 0.165000
0.508486 0.077837 0.165000
0.661575 0.178901 0.165000
0.698214 0.326389 0.165000
0.665215 0.434671 0.165000
0.613359 0.516233 0.165000
0.545829 0.561476 0.165000
0.483767 0.613359 0.165000
0.433787 0.669959 0.165000
0.441316 0.760770 0.165000
0.471637 0.846334 0.165000
0.648213 0.904835 0.165000
1.000000 0.947638 0.165000
0.000000 0.039579 0.165000
0.433931 0.086517 0.165000
0.608968 0.160096 0.165000
0.632627 0.283664 0.165000
0.616334 0.397233 0.165000
0.561476 0.454171 0.165000
0.500000 0.500000 0.165000
0.438523 0.545829 0.165000
0.383666 0.602767 0.165000
0.367372 0.716336 0.165000
0.391032 0.839904 0.165000
0.566070 0.913484 0.165000
1.000000 0.960421 0.165000
0.000000 0.052362 0.165000
0.351788 0.095165 0.165000
0.528363 0.153666 0.165000
0.558684 0.239230 0.165000
0.566213 0.330041 0.165000
0.516233 0.386641 0.165000
0.454171 0.438523 0.165000
0.386641 0.483767 0.165000
0.334785 0.565329 0.165000
0.301786 0.673611 0.165000
0.338425 0.821099 0.165000
0.491515 0.922163 0.165000
1.000000 0.968775 0.165000
0.000000 0.068848 0.165000
0.261349 0.105197 0.165000
0.437819 0.157000 0.165000
0.470814 0.236702 0.165000
0.469434 0.297902 0.165000
0.434671 0.334785 0.165000
0.397233 0.383666 0.165000
0.330040 0.433787 0.165000
0.297902 0.530566 0.165000
0.239747 0.656134 0.165000
0.297274 0.809514 0.165000
0.432957 0.931421 0.165000
1.000000 0.974310 0.165000
0.000000 0.090695 0.165000
0.184101 0.134913 0.165000
0.275206 0.161265 0.165000
0.331560 0.190008 0.165000
0.343866 0.239747 0.165000
0.326389 0.301786 0.165000
0.283665 0.367373 0.165000
0.239230 0.441316 0.165000
0.236702 0.529186 0.165000
0.190008 0.668440 0.165000
0.257380 0.817253 0.165000
0.395289 0.944549 0.165000
1.000000 0.978941 0.165000
0.000000 0.120779 0.165000
0.078055 0.158258 0.165000
0.146571 0.208993 0.165000
0.182747 0.257380 0.165000
0.190486 0.297274 0.165000
0.178901 0.338425 0.165000
0.160096 0.391032 0.165000
0.153666 0.471637 0.165000
0.157000 0.562181 0.165000
0.161265 0.724794 0.165000
0.208993 0.853429 0.165000
0.377404 0.960422 0.165000
1.000000 0.983492 0.165000
0.000000 0.435235 0.165000
0.017045 0.416856 0.165000
0.039578 0.377404 0.165000
0.055451 0.395289 0.165000
0.068578 0.432957 0.165000
0.077837 0.491515 0.165000
0.086516 0.566070 0.165000
0.095165 0.648213 0.165000
0.105197 0.738652 0.165000
0.134913 0.815900 0.165000
0.158257 0.921946 0.165000
0.416856 0.982955 0.165000
1.000000 0.991527 0.165000
0.000000 1.000000 0.165000
0.008473 1.000000 0.165000
0.016508 1.000000 0.165000
0.021059 1.000000 0.165000
0.025690 1.000000 0.165000
0.031225 1.000000 0.165000
0.039579 1.000000 0.165000
0.052362 1.000000 0.165000
0.068848 1.000000 0.165000
0.090695 1.000000 0.165000
0.120779 1.000000 0.165000
0.435235 1.000000 0.165000
1.000000 1.000000 0.165000
0.000000 0.000000 0.247500
0.564764 0.000000 0.247500
0.879221 0.000000 0.247500
0.909305 0.000000 0.247500
0.931152 0.000000 0.247500
0.947638 0.000000 0.247500
0.960421 0.000000 0.247500
0.968775 0.000000 0.247500
0.974310 0.000000 0.247500
0.978941 0.000000 0.247500
0.983492 0.000000 0.247500
0.991527 0.000000 0.247500
1.000000 0.000000 0.247500
0.000000 0.008473 0.247500
0.583144 0.017045 0.247500
0.841743 0.078055 0.247500
0.865087 0.184101 0.247500
0.894803 0.261349 0.247500
0.904835 0.351788 0.247500
0.913483 0.433932 0.247500
0.922163 0.508487 0.247500
0.931421 0.567044 0.247500
0.944549 0.604712 0.247500
0.960422 0.622597 0.247500
0.982955 0.583144 0.247500
1.000000 0.564765 0.247500
0.000000 0.016508 0.247500
0.622597 0.039578 0.247500
0.791007 0.146571 0.247500
0.838735 0.275206 0.247500
0.843000 0.437819 0.247500
0.846334 0.528363 0.247500
0.839904 0.608968 0.247500
0.821099 0.661575 0.247500
0.809514 0.702725 0.247500
0.817253 0.742620 0.247500
0.853429 0.791007 0.247500
0.921946 0.841743 0.247500
1.000000 0.879222 0.247500
0.000000 0.021059 0.247500
0.604712 0.055451 0.247500
0.742620 0.182747 0.247500
0.809992 0.331560 0.247500
0.763298 0.470814 0.247500
0.760770 0.558684 0.247500
0.716336 0.632628 0.247500
0.673611 0.698214 0.247500
0.656134 0.760253 0.247500
0.668440 0.809992 0.247500
0.724794 0.838735 0.247500
0.815900 0.865087 0.247500
1.000000 0.909305 0.247500
0.000000 0.025690 0.247500
0.567044 0.068579 0.247500
0.702725 0.190486 0.247500
0.760253 0.343866 0.247500
0.702098 0.469434 0.247500
0.669959 0.566213 0.247500
0.602767 0.616334 0.247500
0.565329 0.665215 0.247500
0.530566 0.702098 0.247500
0.529186 0.763298 0.247500
0.562181 0.843000 0.247500
0.738652 0.894803 0.247500
1.000000 0.931152 0.247500
0.000000 0.031225 0.247500
0.508486 0.077837 0.247500
0.661575 0.178901 0.247500
0.698214 0.326389 0.247500
0.665215 0.434671 0.247500
0.613359 0.516233 0.247500
0.545829 0.561476 0.247500
0.483767 0.613359 0.247500
0.433787 0.669959 0.247500
0.441316 0.760770 0.247500
0.471637 0.846334 0.247500
0.648213 0.904835 0.247500
1.000000 0.947638 0.247500
0.000000 0.039579 0.247500
0.433931 0.086517 0.247500
0.608968 0.160096 0.247500
0.632627 0.283664 0.247500
0.616334 0.397233 0.247500
0.561476 0.454171 0.247500
0.500000 0.500000 0.247500
0.438523 0.545829 0.247500
0.383666 0.602767 0.247500
0.367372 0.716336 0.247500
0.391032 0.839904 0.247500
0.566070 0.913484 0.247500
1.000000 0.960421 0.247500
0.000000 0.052362 0.247500
0.351788 0.095165 0.247500
0.528363 0.153666 0.247500
0.558684 0.239230 0.247500
0.566213 0.330041 0.247500
0.516233 0.386641 0.247500
0.454171 0.438523 0.247500
0.386641 0.483767 0.247500
0.334785 0.565329 0.247500
0.301786 0.673611 0.247500
0.338425 0.821099 0.247500
0.491515 0.922163 0.247500
1.000000 0.968775 0.247500
0.000000 0.068848 0.247500
0.261349 0.105197 0.247500
0.437819 0.157000 0.247500
0.470814 0.236702 0.247500
0.469434 0.297902 0.247500
0.434671 0.334785 0.247500
0.397233 0.383666 0.247500
0.330040 0.433787 0.247500
0.297902 0.530566 0.247500
0.239747 0.656134 0.247500
0.297274 0.809514 0.247500
0.432957 0.931421 0.247500
1.000000 0.974310 0.247500
0.000000 0.090695 0.247500
0.184101 0.134913 0.247500
0.275206 0.161265 0.247500
0.331560 0.190008 0.247500
0.343866 0.239747 0.247500
0.326389 0.301786 0.247500
0.283665 0.367373 0.247500
0.239230 0.441316 0.247500
0.236702 0.529186 0.247500
0.190008 0.668440 0.247500
0.257380 0.817253 0.247500
0.395289 0.944549 0.247500
1.000000 0.978941 0.247500
0.000000 0.120779 0.247500
0.078055 0.158258 0.247500
0.146571 0.208993 0.247500
0.182747 0.257380 0.247500
0.190486 0.297274 0.247500
0.178901 0.338425 0.247500
0.160096 0.391032 0.247500
0.153666 0.471637 0.247500
0.157000 0.562181 0.247500
0.161265 0.724794 0.247500
0.208993 0.853429 0.247500
0.377404 0.960422 0.247500
1.000000 0.983492 0.247500
0.000000 0.435235 0.247500
0.017045 0.416856 0.247500
0.039578 0.377404 0.247500
0.055451 0.395289 0.247500
0.068578 0.432957 0.247500
0.077837 0.491515 0.247500
0.086516 0.566070 0.247500
0.095165 0.648213 0.247500
0.105197 0.738652 0.247500
0.134913 0.815900 0.247500
0.158257 0.921946 0.247500
0.416856 0.982955 0.247500
1.000000 0.991527 0.247500
0.000000 1.000000 0.247500
0.008473 1.000000 0.247500
0.016508 1.000000 0.247500
0.021059 1.000000 0.247500
0.025690 1.000000 0.247500
0.031225 1.000000 0.247500
0.039579 1.000000 0.247500
0.052362 1.000000 0.247500
0.068848 1.000000 0.247500
0.090695 1.000000 0.247500
0.120779 1.000000 0.247500
0.435235 1.000000 0.247500
1.000000 1.000000 0.247500
0.000000 0.000000 0.330000
0.564764 0.000000 0.330000
0.879221 0.000000 0.330000
0.909305 0.000000 0.330000
0.931152 0.000000 0.330000
0.947638 0.000000 0.330000
0.960421 0.000000 0.330000
0.968775 0.000000 0.330000
0.974310 0.000000 0.330000
0.978941 0.000000 0.330000
0.983492 0.000000 0.330000
0.991527 0.000000 0.330000
1.000000 0.000000 0.330000
0.000000 0.008473 0.330000
0.583144 0.017045 0.330000
0.841743 0.078055 0.330000
0.865087 0.184101 0.330000
0.894803 0.261349 0.330000
0.904835 0.351788 0.330000
0.913483 0.433932 0.330000
0.922163 0.508487 0.330000
0.931421 0.567044 0.330000
0.944549 0.604712 0.330000
0.960422 0.622597 0.330000
0.982955 0.583144 0.330000
1.000000 0.564765 0.330000
0.000000 0.016508 0.330000
0.622597 0.039578 0.330000
0.791007 0.146571 0.330000
0.838735 0.275206 0.330000
0.843000 0.437819 0.330000
0.846334 0.528363 0.330000
0.839904 0.608968 0.330000
0.821099 0.661575 0.330000
0.809514 0.702725 0.330000
0.817253 0.742620 0.330000
0.853429 0.791007 0.330000
0.921946 0.841743 0.330000
1.000000 0.879222 0.330000
0.000000 0.021059 0.330000
0.604712 0.055451 0.330000
0.742620 0.182747 0.330000
0.809992 0.331560 0.330000
0.763298 0.470814 0.330000
0.760770 0.558684 0.330000
0.716336 0.632628 0.330000
0.673611 0.698214 0.330000
0.656134 0.760253 0.330000
0.668440 0.809992 0.330000
0.724794 0.838735 0.330000
0.815900 0.865087 0.330000
1.000000 0.909305 0.330000
0.000000 0.025690 0.330000
0.567044 0.068579 0.330000
0.702725 0.190486 0.330000
0.760253 0.343866 0.330000
0.702098 0.469434 0.330000
0.669959 0.566213 0.330000
0.602767 0.616334 0.330000
0.565329 0.665215 0.330000
0.530566 0.702098 0.330000
0.529186 0.763298 0.330000
0.562181 0.843000 0.330000