# vtk DataFile Version 2.0
Mesh for Fierro
ASCII 
DATASET UNSTRUCTURED_GRID

POINTS 845 float
0.000000 0.000000 0.000000
0.507196 0.000000 0.000000
0.749127 0.000000 0.000000
0.821279 0.000000 0.000000
0.872521 0.000000 0.000000
0.903710 0.000000 0.000000
0.926105 0.000000 0.000000
0.943361 0.000000 0.000000
0.956324 0.000000 0.000000
0.967431 0.000000 0.000000
0.977747 0.000000 0.000000
0.988712 0.000000 0.000000
1.000000 0.000000 0.000000
0.000000 0.011288 0.000000
0.503792 0.019308 0.000000
0.731277 0.060939 0.000000
0.806213 0.104829 0.000000
0.852937 0.174477 0.000000
0.879606 0.237953 0.000000
0.899272 0.303859 0.000000
0.914573 0.368357 0.000000
0.928741 0.424341 0.000000
0.944907 0.463441 0.000000
0.961871 0.489734 0.000000
0.980692 0.503792 0.000000
1.000000 0.507196 0.000000
0.000000 0.022253 0.000000
0.489734 0.038129 0.000000
0.701779 0.110163 0.000000
0.783435 0.189205 0.000000
0.812783 0.305130 0.000000
0.834614 0.392533 0.000000
0.841174 0.481550 0.000000
0.842774 0.552797 0.000000
0.843895 0.613405 0.000000
0.860336 0.661600 0.000000
0.889837 0.701779 0.000000
0.939062 0.731277 0.000000
1.000000 0.749127 0.000000
0.000000 0.032569 0.000000
0.463441 0.055093 0.000000
0.661600 0.139664 0.000000
0.740421 0.239908 0.000000
0.750225 0.362535 0.000000
0.762493 0.456783 0.000000
0.745652 0.545117 0.000000
0.735009 0.619061 0.000000
0.731029 0.685819 0.000000
0.760092 0.740421 0.000000
0.810795 0.783435 0.000000
0.895171 0.806214 0.000000
1.000000 0.821279 0.000000
0.000000 0.043676 0.000000
0.424341 0.071259 0.000000
0.613405 0.156105 0.000000
0.685819 0.268971 0.000000
0.686610 0.388335 0.000000
0.680978 0.485273 0.000000
0.645669 0.563068 0.000000
0.628336 0.630121 0.000000
0.611665 0.686610 0.000000
0.637465 0.750225 0.000000
0.694870 0.812783 0.000000
0.825524 0.852937 0.000000
1.000000 0.872521 0.000000
0.000000 0.056639 0.000000
0.368357 0.085427 0.000000
0.552797 0.157226 0.000000
0.619061 0.264991 0.000000
0.630121 0.371664 0.000000
0.610537 0.463009 0.000000
0.570338 0.537388 0.000000
0.536991 0.610537 0.000000
0.514727 0.680978 0.000000
0.543217 0.762493 0.000000
0.607467 0.834613 0.000000
0.762048 0.879606 0.000000
1.000000 0.903710 0.000000
0.000000 0.073895 0.000000
0.303859 0.100729 0.000000
0.481550 0.158826 0.000000
0.545117 0.254348 0.000000
0.563068 0.354331 0.000000
0.537388 0.429662 0.000000
0.500000 0.500000 0.000000
0.462612 0.570338 0.000000
0.436932 0.645669 0.000000
0.454883 0.745652 0.000000
0.518450 0.841174 0.000000
0.696142 0.899272 0.000000
1.000000 0.926105 0.000000
0.000000 0.096290 0.000000
0.237953 0.120394 0.000000
0.392533 0.165386 0.000000
0.456783 0.237507 0.000000
0.485273 0.319022 0.000000
0.463009 0.389463 0.000000
0.429662 0.462612 0.000000
0.389463 0.536991 0.000000
0.369879 0.628336 0.000000
0.380939 0.735009 0.000000
0.447203 0.842774 0.000000
0.631644 0.914573 0.000000
1.000000 0.943361 0.000000
0.000000 0.127479 0.000000
0.174477 0.147063 0.000000
0.305130 0.187217 0.000000
0.362535 0.249775 0.000000
0.388335 0.313389 0.000000
0.371664 0.369879 0.000000
0.354331 0.436932 0.000000
0.319022 0.514727 0.000000
0.313389 0.611665 0.000000
0.314181 0.731029 0.000000
0.386595 0.843895 0.000000
0.575660 0.928741 0.000000
1.000000 0.956324 0.000000
0.000000 0.178721 0.000000
0.104829 0.193787 0.000000
0.189205 0.216565 0.000000
0.239908 0.259579 0.000000
0.268971 0.314181 0.000000
0.264991 0.380939 0.000000
0.254348 0.454883 0.000000
0.237507 0.543217 0.000000
0.249775 0.637465 0.000000
0.259579 0.760092 0.000000
0.338400 0.860336 0.000000
0.536560 0.944907 0.000000
1.000000 0.967431 0.000000
0.000000 0.250873 0.000000
0.060939 0.268723 0.000000
0.110163 0.298221 0.000000
0.139664 0.338400 0.000000
0.156105 0.386595 0.000000
0.157226 0.447203 0.000000
0.158826 0.518450 0.000000
0.165387 0.607467 0.000000
0.187217 0.694870 0.000000
0.216565 0.810795 0.000000
0.298221 0.889837 0.000000
0.510267 0.961871 0.000000
1.000000 0.977747 0.000000
0.000000 0.492805 0.000000
0.019308 0.496209 0.000000
0.038129 0.510267 0.000000
0.055093 0.536560 0.000000
0.071259 0.575660 0.000000
0.085427 0.631644 0.000000
0.100728 0.696142 0.000000
0.120394 0.762048 0.000000
0.147063 0.825524 0.000000
0.193786 0.895171 0.000000
0.268723 0.939062 0.000000
0.496209 0.980692 0.000000
1.000000 0.988712 0.000000
0.000000 1.000000 0.000000
0.011288 1.000000 0.000000
0.022253 1.000000 0.000000
0.032569 1.000000 0.000000
0.043676 1.000000 0.000000
0.056639 1.000000 0.000000
0.073895 1.000000 0.000000
0.096290 1.000000 0.000000
0.127479 1.000000 0.000000
0.178721 1.000000 0.000000
0.250873 1.000000 0.000000
0.492805 1.000000 0.000000
1.000000 1.000000 0.000000
0.000000 0.000000 0.082500
0.507196 0.000000 0.082500
0.749127 0.000000 0.082500
0.821279 0.000000 0.082500
0.872521 0.000000 0.082500
0.903710 0.000000 0.082500
0.926105 0.000000 0.082500
0.943361 0.000000 0.082500
0.956324 0.000000 0.082500
0.967431 0.000000 0.082500
0.977747 0.000000 0.082500
0.988712 0.000000 0.082500
1.000000 0.000000 0.082500
0.000000 0.011288 0.082500
0.503792 0.019308 0.082500
0.731277 0.060939 0.082500
0.806213 0.104829 0.082500
0.852937 0.174477 0.082500
0.879606 0.237953 0.082500
0.899272 0.303859 0.082500
0.914573 0.368357 0.082500
0.928741 0.424341 0.082500
0.944907 0.463441 0.082500
0.961871 0.489734 0.082500
0.980692 0.503792 0.082500
1.000000 0.507196 0.082500
0.000000 0.022253 0.082500
0.489734 0.038129 0.082500
0.701779 0.110163 0.082500
0.783435 0.189205 0.082500
0.812783 0.305130 0.082500
0.834614 0.392533 0.082500
0.841174 0.481550 0.082500
0.842774 0.552797 0.082500
0.843895 0.613405 0.082500
0.860336 0.661600 0.082500
0.889837 0.701779 0.082500
0.939062 0.731277 0.082500
1.000000 0.749127 0.082500
0.000000 0.032569 0.082500
0.463441 0.055093 0.082500
0.661600 0.139664 0.082500
0.740421 0.239908 0.082500
0.750225 0.362535 0.082500
0.762493 0.456783 0.082500
0.745652 0.545117 0.082500
0.735009 0.619061 0.082500
0.731029 0.685819 0.082500
0.760092 0.740421 0.082500
0.810795 0.783435 0.082500
0.895171 0.806214 0.082500
1.000000 0.821279 0.082500
0.000000 0.043676 0.082500
0.424341 0.071259 0.082500
0.613405 0.156105 0.082500
0.685819 0.268971 0.082500
0.686610 0.388335 0.082500
0.680978 0.485273 0.082500
0.645669 0.563068 0.082500
0.628336 0.630121 0.082500
0.611665 0.686610 0.082500
0.637465 0.750225 0.082500
0.694870 0.812783 0.082500
0.825524 0.852937 0.082500
1.000000 0.872521 0.082500
0.000000 0.056639 0.082500
0.368357 0.085427 0.082500
0.552797 0.157226 0.082500
0.619061 0.264991 0.082500
0.630121 0.371664 0.082500
0.610537 0.463009 0.082500
0.570338 0.537388 0.082500
0.536991 0.610537 0.082500
0.514727 0.680978 0.082500
0.543217 0.762493 0.082500
0.607467 0.834613 0.082500
0.762048 0.879606 0.082500
1.000000 0.903710 0.082500
0.000000 0.073895 0.082500
0.303859 0.100729 0.082500
0.481550 0.158826 0.082500
0.545117 0.254348 0.082500
0.563068 0.354331 0.082500
0.537388 0.429662 0.082500
0.500000 0.500000 0.082500
0.462612 0.570338 0.082500
0.436932 0.645669 0.082500
0.454883 0.745652 0.082500
0.518450 0.841174 0.082500
0.696142 0.899272 0.082500
1.000000 0.926105 0.082500
0.000000 0.096290 0.082500
0.237953 0.120394 0.082500
0.392533 0.165386 0.082500
0.456783 0.237507 0.082500
0.485273 0.319022 0.082500
0.463009 0.389463 0.082500
0.429662 0.462612 0.082500
0.389463 0.536991 0.082500
0.369879 0.628336 0.082500
0.380939 0.735009 0.082500
0.447203 0.842774 0.082500
0.631644 0.914573 0.082500
1.000000 0.943361 0.082500
0.000000 0.127479 0.082500
0.174477 0.147063 0.082500
0.305130 0.187217 0.082500
0.362535 0.249775 0.082500
0.388335 0.313389 0.082500
0.371664 0.369879 0.082500
0.354331 0.436932 0.082500
0.319022 0.514727 0.082500
0.313389 0.611665 0.082500
0.314181 0.731029 0.082500
0.386595 0.843895 0.082500
0.575660 0.928741 0.082500
1.000000 0.956324 0.082500
0.000000 0.178721 0.082500
0.104829 0.193787 0.082500
0.189205 0.216565 0.082500
0.239908 0.259579 0.082500
0.268971 0.314181 0.082500
0.264991 0.380939 0.082500
0.254348 0.454883 0.082500
0.237507 0.543217 0.082500
0.249775 0.637465 0.082500
0.259579 0.760092 0.082500
0.338400 0.860336 0.082500
0.536560 0.944907 0.082500
1.000000 0.967431 0.082500
0.000000 0.250873 0.082500
0.060939 0.268723 0.082500
0.110163 0.298221 0.082500
0.139664 0.338400 0.082500
0.156105 0.386595 0.082500
0.157226 0.447203 0.082500
0.158826 0.518450 0.082500
0.165387 0.607467 0.082500
0.187217 0.694870 0.082500
0.216565 0.810795 0.082500
0.298221 0.889837 0.082500
0.510267 0.961871 0.082500
1.000000 0.977747 0.082500
0.000000 0.492805 0.082500
0.019308 0.496209 0.082500
0.038129 0.510267 0.082500
0.055093 0.536560 0.082500
0.071259 0.575660 0.082500
0.085427 0.631644 0.082500
0.100728 0.696142 0.082500
0.120394 0.762048 0.082500
0.147063 0.825524 0.082500
0.193786 0.895171 0.082500
0.268723 0.939062 0.082500
0.496209 0.980692 0.082500
1.000000 0.988712 0.082500
0.000000 1.000000 0.082500
0.011288 1.000000 0.082500
0.022253 1.000000 0.082500
0.032569 1.000000 0.082500
0.043676 1.000000 0.082500
0.056639 1.000000 0.082500
0.073895 1.000000 0.082500
0.096290 1.000000 0.082500
0.127479 1.000000 0.082500
0.178721 1.000000 0.082500
0.250873 1.000000 0.082500
0.492805 1.000000 0.082500
1.000000 1.000000 0.082500
0.000000 0.000000 0.165000
0.507196 0.000000 0.165000
0.749127 0.000000 0.165000
0.821279 0.000000 0.165000
0.872521 0.000000 0.165000
0.903710 0.000000 0.165000
0.926105 0.000000 0.165000
0.943361 0.000000 0.165000
0.956324 0.000000 0.165000
0.967431 0.000000 0.165000
0.977747 0.000000 0.165000
0.988712 0.000000 0.165000
1.000000 0.000000 0.165000
0.000000 0.011288 0.165000
0.503792 0.019308 0.165000
0.731277 0.060939 0.165000
0.806213 0.104829 0.165000
0.852937 0.174477 0.165000
0.879606 0.237953 0.165000
0.899272 0.303859 0.165000
0.914573 0.368357 0.165000
0.928741 0.424341 0.165000
0.944907 0.463441 0.165000
0.961871 0.489734 0.165000
0.980692 0.503792 0.165000
1.000000 0.507196 0.165000
0.000000 0.022253 0.165000
0.489734 0.038129 0.165000
[...]
POINT_DATA 845 
VECTORS pos float 
0.000000 0.000000 0.000000
0.507196 0.000000 0.000000
0.749127 0.000000 0.000000
0.821279 0.000000 0.000000
0.872521 0.000000 0.000000
0.903710 0.000000 0.000000
0.926105 0.000000 0.000000
0.943361 0.000000 0.000000
0.956324 0.000000 0.000000
0.967431 0.000000 0.000000
0.977747 0.000000 0.000000
0.988712 0.000000 0.000000
1.000000 0.000000 0.000000
0.000000 0.011288 0.000000
0.503792 0.019308 0.000000
0.731277 0.060939 0.000000
0.806213 0.104829 0.000000
0.852937 0.174477 0.000000
0.879606 0.237953 0.000000
0.899272 0.303859 0.000000
0.914573 0.368357 0.000000
0.928741 0.424341 0.000000
0.944907 0.463441 0.000000
0.961871 0.489734 0.000000
0.980692 0.503792 0.000000
1.000000 0.507196 0.000000
0.000000 0.022253 0.000000
0.489734 0.038129 0.000000
0.701779 0.110163 0.000000
0.783435 0.189205 0.000000
0.812783 0.305130 0.000000
0.834614 0.392533 0.000000
0.841174 0.481550 0.000000
0.842774 0.552797 0.000000
0.843895 0.613405 0.000000
0.860336 0.661600 0.000000
0.889837 0.701779 0.000000
0.939062 0.731277 0.000000
1.000000 0.749127 0.000000
0.000000 0.032569 0.000000
0.463441 0.055093 0.000000
0.661600 0.139664 0.000000
0.740421 0.239908 0.000000
0.750225 0.362535 0.000000
0.762493 0.456783 0.000000
0.745652 0.545117 0.000000
0.735009 0.619061 0.000000
0.731029 0.685819 0.000000
0.760092 0.740421 0.000000
0.810795 0.783435 0.000000
0.895171 0.806214 0.000000
1.000000 0.821279 0.000000
0.000000 0.043676 0.000000
0.424341 0.071259 0.000000
0.613405 0.156105 0.000000
0.685819 0.268971 0.000000
0.686610 0.388335 0.000000
0.680978 0.485273 0.000000
0.645669 0.563068 0.000000
0.628336 0.630121 0.000000
0.611665 0.686610 0.000000
0.637465 0.750225 0.000000
0.694870 0.812783 0.000000
0.825524 0.852937 0.000000
1.000000 0.872521 0.000000
0.000000 0.056639 0.000000
0.368357 0.085427 0.000000
0.552797 0.157226 0.000000
0.619061 0.264991 0.000000
0.630121 0.371664 0.000000
0.610537 0.463009 0.000000
0.570338 0.537388 0.000000
0.536991 0.610537 0.000000
0.514727 0.680978 0.000000
0.543217 0.762493 0.000000
0.607467 0.834613 0.000000
0.762048 0.879606 0.000000
1.000000 0.903710 0.000000
0.000000 0.073895 0.000000
0.303859 0.100729 0.000000
0.481550 0.158826 0.000000
0.545117 0.254348 0.000000
0.563068 0.354331 0.000000
0.537388 0.429662 0.000000
0.500000 0.500000 0.000000
0.462612 0.570338 0.000000
0.436932 0.645669 0.000000
0.454883 0.745652 0.000000
0.518450 0.841174 0.000000
0.696142 0.899272 0.000000
1.000000 0.926105 0.000000
0.000000 0.096290 0.000000
0.237953 0.120394 0.000000
0.392533 0.165386 0.000000
0.456783 0.237507 0.000000
0.485273 0.319022 0.000000
0.463009 0.389463 0.000000
0.429662 0.462612 0.000000
0.389463 0.536991 0.000000
0.369879 0.628336 0.000000
0.380939 0.735009 0.000000
0.447203 0.842774 0.000000
0.631644 0.914573 0.000000
1.000000 0.943361 0.000000
0.000000 0.127479 0.000000
0.174477 0.147063 0.000000
0.305130 0.187217 0.000000
0.362535 0.249775 0.000000
0.388335 0.313389 0.000000
0.371664 0.369879 0.000000
0.354331 0.436932 0.000000
0.319022 0.514727 0.000000
0.313389 0.611665 0.000000
0.314181 0.731029 0.000000
0.386595 0.843895 0.000000
0.575660 0.928741 0.000000
1.000000 0.956324 0.000000
0.000000 0.178721 0.000000
0.104829 0.193787 0.000000
0.189205 0.216565 0.000000
0.239908 0.259579 0.000000
0.268971 0.314181 0.000000
0.264991 0.380939 0.000000
0.254348 0.454883 0.000000
0.237507 0.543217 0.000000
0.249775 0.637465 0.000000
0.259579 0.760092 0.000000
0.338400 0.860336 0.000000
0.536560 0.944907 0.000000
1.000000 0.967431 0.000000
0.000000 0.250873 0.000000
0.060939 0.268723 0.000000
0.110163 0.298221 0.000000
0.139664 0.338400 0.000000
0.156105 0.386595 0.000000
0.157226 0.447203 0.000000
0.158826 0.518450 0.000000
0.165387 0.607467 0.000000
0.187217 0.694870 0.000000
0.216565 0.810795 0.000000
0.298221 0.889837 0.000000
0.510267 0.961871 0.000000
1.000000 0.977747 0.000000
0.000000 0.492805 0.000000
0.019308 0.496209 0.000000
0.038129 0.510267 0.000000
0.055093 0.536560 0.000000
0.071259 0.575660 0.000000
0.085427 0.631644 0.000000
0.100728 0.696142 0.000000
0.120394 0.762048 0.000000
0.147063 0.825524 0.000000
0.193786 0.895171 0.000000
0.268723 0.939062 0.000000
0.496209 0.980692 0.000000
1.000000 0.988712 0.000000
0.000000 1.000000 0.000000
0.011288 1.000000 0.000000
0.022253 1.000000 0.000000
0.032569 1.000000 0.000000
0.043676 1.000000 0.000000
0.056639 1.000000 0.000000
0.073895 1.000000 0.000000
0.096290 1.000000 0.000000
0.127479 1.000000 0.000000
0.178721 1.000000 0.000000
0.250873 1.000000 0.000000
0.492805 1.000000 0.000000
1.000000 1.000000 0.000000
0.000000 0.000000 0.082500
0.507196 0.000000 0.082500
0.749127 0.000000 0.082500
0.821279 0.000000 0.082500
0.872521 0.000000 0.082500
0.903710 0.000000 0.082500
0.926105 0.000000 0.082500
0.943361 0.000000 0.082500
0.956324 0.000000 0.082500
0.967431 0.000000 0.082500
0.977747 0.000000 0.082500
0.988712 0.000000 0.082500
1.000000 0.000000 0.082500
0.000000 0.011288 0.082500
0.503792 0.019308 0.082500
0.731277 0.060939 0.082500
0.806213 0.104829 0.082500
0.852937 0.174477 0.082500
0.879606 0.237953 0.082500
0.899272 0.303859 0.082500
0.914573 0.368357 0.082500
0.928741 0.424341 0.082500
0.944907 0.463441 0.082500
0.961871 0.489734 0.082500
0.980692 0.503792 0.082500
1.000000 0.507196 0.082500
0.000000 0.022253 0.082500
0.489734 0.038129 0.082500
0.701779 0.110163 0.082500
0.783435 0.189205 0.082500
0.812783 0.305130 0.082500
0.834614 0.392533 0.082500
0.841174 0.481550 0.082500
0.842774 0.552797 0.082500
0.843895 0.613405 0.082500
0.860336 0.661600 0.082500
0.889837 0.701779 0.082500
0.939062 0.731277 0.082500
1.000000 0.749127 0.082500
0.000000 0.032569 0.082500
0.463441 0.055093 0.082500
0.661600 0.139664 0.082500
0.740421 0.239908 0.082500
0.750225 0.362535 0.082500
0.762493 0.456783 0.082500
0.745652 0.545117 0.082500
0.735009 0.619061 0.082500
0.731029 0.685819 0.082500
0.760092 0.740421 0.082500
0.810795 0.783435 0.082500
0.895171 0.806214 0.082500
1.000000 0.821279 0.082500
0.000000 0.043676 0.082500
0.424341 0.071259 0.082500
0.613405 0.156105 0.082500
0.685819 0.268971 0.082500
0.686610 0.388335 0.082500
0.680978 0.485273 0.082500
0.645669 0.563068 0.082500
0.628336 0.630121 0.082500
0.611665 0.686610 0.082500
0.637465 0.750225 0.082500
0.694870 0.812783 0.082500
0.825524 0.852937 0.082500
1.000000 0.872521 0.082500
0.000000 0.056639 0.082500
0.368357 0.085427 0.082500
0.552797 0.157226 0.082500
0.619061 0.264991 0.082500
0.630121 0.371664 0.082500
0.610537 0.463009 0.082500
0.570338 0.537388 0.082500
0.536991 0.610537 0.082500
0.514727 0.680978 0.082500
0.543217 0.762493 0.082500
0.607467 0.834613 0.082500
0.762048 0.879606 0.082500
1.000000 0.903710 0.082500
0.000000 0.073895 0.082500
0.303859 0.100729 0.082500
0.481550 0.158826 0.082500
0.545117 0.254348 0.082500
0.563068 0.354331 0.082500
0.537388 0.429662 0.082500
0.500000 0.500000 0.082500
0.462612 0.570338 0.082500
0.436932 0.645669 0.082500
0.454883 0.745652 0.082500
0.518450 0.841174 0.082500
0.696142 0.899272 0.082500
1.000000 0.926105 0.082500
0.000000 0.096290 0.082500
0.237953 0.120394 0.082500
0.392533 0.165386 0.082500
0.456783 0.237507 0.082500
0.485273 0.319022 0.082500
0.463009 0.389463 0.082500
0.429662 0.462612 0.082500
0.389463 0.536991 0.082500
0.369879 0.628336 0.082500
0.380939 0.735009 0.082500
0.447203 0.842774 0.082500
0.631644 0.914573 0.082500
1.000000 0.943361 0.082500
0.000000 0.127479 0.082500
0.174477 0.147063 0.082500
0.305130 0.187217 0.082500
0.362535 0.249775 0.082500
0.388335 0.313389 0.082500
0.371664 0.369879 0.082500
0.354331 0.436932 0.082500
0.319022 0.514727 0.082500
0.313389 0.611665 0.082500
0.314181 0.731029 0.082500
0.386595 0.843895 0.082500
0.575660 0.928741 0.082500
1.000000 0.956324 0.082500
0.000000 0.178721 0.082500
0.104829 0.193787 0.082500
0.189205 0.216565 0.082500
0.239908 0.259579 0.082500
0.268971 0.314181 0.082500
0.264991 0.380939 0.082500
0.254348 0.454883 0.082500
0.237507 0.543217 0.082500
0.249775 0.637465 0.082500
0.259579 0.760092 0.082500
0.338400 0.860336 0.082500
0.536560 0.944907 0.082500
1.000000 0.967431 0.082500
0.000000 0.250873 0.082500
0.060939 0.268723 0.082500
0.110163 0.298221 0.082500
0.139664 0.338400 0.082500
0.156105 0.386595 0.082500
0.157226 0.447203 0.082500
0.158826 0.518450 0.082500
0.165387 0.607467 0.082500
0.187217 0.694870 0.082500
0.216565 0.810795 0.082500
0.298221 0.889837 0.082500
0.510267 0.961871 0.082500
1.000000 0.977747 0.082500
0.000000 0.492805 0.082500
0.019308 0.496209 0.082500
0.038129 0.510267 0.082500
0.055093 0.536560 0.082500
0.071259 0.575660 0.082500
0.085427 0.631644 0.082500
0.100728 0.696142 0.082500
0.120394 0.762048 0.082500
0.147063 0.825524 0.082500
0.193786 0.895171 0.082500
0.268723 0.939062 0.082500
0.496209 0.980692 0.082500
1.000000 0.988712 0.082500
0.000000 1.000000 0.082500
0.011288 1.000000 0.082500
0.022253 1.000000 0.082500
0.032569 1.000000 0.082500
0.043676 1.000000 0.082500
0.056639 1.000000 0.082500
0.073895 1.000000 0.082500
0.096290 1.000000 0.082500
0.127479 1.000000 0.082500
0.178721 1.000000 0.082500
0.250873 1.000000 0.082500
0.492805 1.000000 0.082500
1.000000 1.000000 0.082500
0.000000 0.000000 0.165000
0.507196 0.000000 0.165000
0.749127 0.000000 0.165000
0.821279 0.000000 0.165000
0.872521 0.000000 0.165000
0.903710 0.000000 0.165000
0.926105 0.000000 0.165000
0.943361 0.000000 0.165000
0.956324 0.000000 0.165000
0.967431 0.000000 0.165000
0.977747 0.000000 0.165000
0.988712 0.000000 0.165000
1.000000 0.000000 0.165000
0.000000 0.011288 0.165000
0.503792 0.019308 0.165000
0.731277 0.060939 0.165000
0.806213 0.104829 0.165000
0.852937 0.174477 0.165000
0.879606 0.237953 0.165000
0.899272 0.303859 0.165000
0.914573 0.368357 0.165000
0.928741 0.424341 0.165000
0.944907 0.463441 0.165000
0.961871 0.489734 0.165000
0.980692 0.503792 0.165000
1.000000 0.507196 0.165000
0.000000 0.022253 0.165000
0.489734 0.038129 0.165000
0.701779 0.110163 0.165000
0.783435 0.189205 0.165000
0.812783 0.305130 0.165000
0.834614 0.392533 0.165000
0.841174 0.481550 0.165000
0.842774 0.552797 0.165000
0.843895 0.613405 0.165000
0.860336 0.661600 0.165000
0.889837 0.701779 0.165000
0.939062 0.731277 0.165000
1.000000 0.749127 0.165000
0.000000 0.032569 0.165000
0.463441 0.055093 0.165000
0.661600 0.139664 0.165000
0.740421 0.239908 0.165000
0.750225 0.362535 0.165000
0.762493 0.456783 0.165000
0.745652 0.545117 0.165000
0.735009 0.619061 0.165000
0.731029 0.685819 0.165000
0.760092 0.740421 0.165000
0.810795 0.783435 0.165000
0.895171 0.806214 0.165000
1.000000 0.821279 0.165000
0.000000 0.043676 0.165000
0.424341 0.071259 0.165000
0.613405 0.156105 0.165000
0.685819 0.268971 0.165000
0.686610 0.388335 0.165000
0.680978 0.485273 0.165000
0.645669 0.563068 0.165000
0.628336 0.630121 0.165000
0.611665 0.686610 0.165000
0.637465 0.750225 0.165000
0.694870 0.812783 0.165000
0.825524 0.852937 0.165000
1.000000 0.872521 0.165000
0.000000 0.056639 0.165000
0.368357 0.085427 0.165000
0.552797 0.157226 0.165000
0.619061 0.264991 0.165000
0.630121 0.371664 0.165000
0.610537 0.463009 0.165000
0.570338 0.537388 0.165000
0.536991 0.610537 0.165000
0.514727 0.680978 0.165000
0.543217 0.762493 0.165000
0.607467 0.834613 0.165000
0.762048 0.879606 0.165000
1.000000 0.903710 0.165000
0.000000 0.073895 0.165000
0.303859 0.100729 0.165000
0.481550 0.158826 0.165000
0.545117 0.254348 0.165000
0.563068 0.354331 0.165000
0.537388 0.429662 0.165000
0.500000 0.500000 0.165000
0.462612 0.570338 0.165000
0.436932 0.645669 0.165000
0.454883 0.745652 0.165000
0.518450 0.841174 0.165000
0.696142 0.899272 0.165000
1.000000 0.926105 0.165000
0.000000 0.096290 0.165000
0.237953 0.120394 0.165000
0.392533 0.165386 0.165000
0.456783 0.237507 0.165000
0.485273 0.319022 0.165000
0.463009 0.389463 0.165000
0.429662 0.462612 0.165000
0.389463 0.536991 0.165000
0.369879 0.628336 0.165000
0.380939 0.735009 0.165000
0.447203 0.842774 0.165000
0.631644 0.914573 0.165000
1.000000 0.943361 0.165000
0.000000 0.127479 0.165000
0.174477 0.147063 0.165000
0.305130 0.187217 0.165000
0.362535 0.249775 0.165000
0.388335 0.313389 0.165000
0.371664 0.369879 0.165000
0.354331 0.436932 0.165000
0.319022 0.514727 0.165000
0.313389 0.611665 0.165000
0.314181 0.731029 0.165000
0.386595 0.843895 0.165000
0.575660 0.928741 0.165000
1.000000 0.956324 0.165000
0.000000 0.178721 0.165000
0.104829 0.193787 0.165000
0.189205 0.216565 0.165000
0.239908 0.259579 0.165000
0.268971 0.314181 0.165000
0.264991 0.380939 0.165000
0.254348 0.454883 0.165000
0.237507 0.543217 0.165000
0.249775 0.637465 0.165000
0.259579 0.760092 0.165000
0.338400 0.860336 0.165000
0.536560 0.944907 0.165000
1.000000 0.967431 0.165000
0.000000 0.250873 0.165000
0.060939 0.268723 0.165000
0.110163 0.298221 0.165000
0.139664 0.338400 0.165000
0.156105 0.386595 0.165000
0.157226 0.447203 0.165000
0.158826 0.518450 0.165000
0.165387 0.607467 0.165000
0.187217 0.694870 0.165000
0.216565 0.810795 0.165000
0.298221 0.889837 0.165000
0.510267 0.961871 0.165000
1.000000 0.977747 0.165000
0.000000 0.492805 0.165000
0.019308 0.496209 0.165000
0.038129 0.510267 0.165000
0.055093 0.536560 0.165000
0.071259 0.575660 0.165000
0.085427 0.631644 0.165000
0.100728 0.696142 0.165000
0.120394 0.762048 0.165000
0.147063 0.825524 0.165000
0.193786 0.895171 0.165000
0.268723 0.939062 0.165000
0.496209 0.980692 0.165000
1.000000 0.988712 0.165000
0.000000 1.000000 0.165000
0.011288 1.000000 0.165000
0.022253 1.000000 0.165000
0.032569 1.000000 0.165000
0.043676 1.000000 0.165000
0.056639 1.000000 0.165000
0.073895 1.000000 0.165000
0.096290 1.000000 0.165000
0.127479 1.000000 0.165000
0.178721 1.000000 0.165000
0.250873 1.000000 0.165000
0.492805 1.000000 0.165000
1.000000 1.000000 0.165000
0.000000 0.000000 0.247500
0.507196 0.000000 0.247500
0.749127 0.000000 0.247500
0.821279 0.000000 0.247500
0.872521 0.000000 0.247500
0.903710 0.000000 0.247500
0.926105 0.000000 0.247500
0.943361 0.000000 0.247500
0.956324 0.000000 0.247500
0.967431 0.000000 0.247500
0.977747 0.000000 0.247500
0.988712 0.000000 0.247500
1.000000 0.000000 0.247500
0.000000 0.011288 0.247500
0.503792 0.019308 0.247500
0.731277 0.060939 0.247500
0.806213 0.104829 0.247500
0.852937 0.174477 0.247500
0.879606 0.237953 0.247500
0.899272 0.303859 0.247500
0.914573 0.368357 0.247500
0.928741 0.424341 0.247500
0.944907 0.463441 0.247500
0.961871 0.489734 0.247500
0.980692 0.503792 0.247500
1.000000 0.507196 0.247500
0.000000 0.022253 0.247500
0.489734 0.038129 0.247500
0.701779 0.110163 0.247500
0.783435 0.189205 0.247500
0.812783 0.305130 0.247500
0.834614 0.392533 0.247500
0.841174 0.481550 0.247500
0.842774 0.552797 0.247500
0.843895 0.613405 0.247500
0.860336 0.661600 0.247500
0.889837 0.701779 0.247500
0.939062 0.731277 0.247500
1.000000 0.749127 0.247500
0.000000 0.032569 0.247500
0.463441 0.055093 0.247500
0.661600 0.139664 0.247500
0.740421 0.239908 0.247500
0.750225 0.362535 0.247500
0.762493 0.456783 0.247500
0.745652 0.545117 0.247500
0.735009 0.619061 0.247500
0.731029 0.685819 0.247500
0.760092 0.740421 0.247500
0.810795 0.783435 0.247500
0.895171 0.806214 0.247500
1.000000 0.821279 0.247500
0.000000 0.043676 0.247500
0.424341 0.071259 0.247500
0.613405 0.156105 0.247500
0.685819 0.268971 0.247500
0.686610 0.388335 0.247500
0.680978 0.485273 0.247500
0.645669 0.563068 0.247500
0.628336 0.630121 0.247500
0.611665 0.686610 0.247500
0.637465 0.750225 0.247500
0.694870 0.812783 0.247500
0.825524 0.852937 0.247500
1.000000 0.872521 0.247500
0.000000 0.056639 0.247500
0.368357 0.085427 0.247500
0.552797 0.157226 0.247500
0.619061 0.264991 0.247500
0.630121 0.371664 0.247500
0.610537 0.463009 0.247500
0.570338 0.537388 0.247500
0.536991 0.610537 0.247500
0.514727 0.680978 0.247500
0.543217 0.762493 0.247500
0.607467 0.834613 0.247500
0.762048 0.879606 0.247500
1.000000 0.903710 0.247500
0.000000 0.073895 0.247500
0.303859 0.100729 0.247500
0.481550 0.158826 0.247500
0.545117 0.254348 0.247500
0.563068 0.354331 0.247500
0.537388 0.429662 0.247500
0.500000 0.500000 0.247500
0.462612 0.570338 0.247500
0.436932 0.645669 0.247500
0.454883 0.745652 0.247500
0.518450 0.841174 0.247500
0.696142 0.899272 0.247500
1.000000 0.926105 0.247500
0.000000 0.096290 0.247500
0.237953 0.120394 0.247500
0.392533 0.165386 0.247500
0.456783 0.237507 0.247500
0.485273 0.319022 0.247500
0.463009 0.389463 0.247500
0.429662 0.462612 0.247500
0.389463 0.536991 0.247500
0.369879 0.628336 0.247500
0.380939 0.735009 0.247500
0.447203 0.842774 0.247500
0.631644 0.914573 0.247500
1.000000 0.943361 0.247500
0.000000 0.127479 0.247500
0.174477 0.147063 0.247500
0.305130 0.187217 0.247500
0.362535 0.249775 0.247500
0.388335 0.313389 0.247500
0.371664 0.369879 0.247500
0.354331 0.436932 0.247500
0.319022 0.514727 0.247500
0.313389 0.611665 0.247500
0.314181 0.731029 0.247500
0.386595 0.843895 0.247500
0.575660 0.928741 0.247500
1.000000 0.956324 0.247500
0.000000 0.178721 0.247500
0.104829 0.193787 0.247500
0.189205 0.216565 0.247500
0.239908 0.259579 0.247500
0.268971 0.314181 0.247500
0.264991 0.380939 0.247500
0.254348 0.454883 0.247500
0.237507 0.543217 0.247500
0.249775 0.637465 0.247500
0.259579 0.760092 0.247500
0.338400 0.860336 0.247500
0.536560 0.944907 0.247500
1.000000 0.967431 0.247500
0.000000 0.250873 0.247500
0.060939 0.268723 0.247500
0.110163 0.298221 0.247500
0.139664 0.338400 0.247500
0.156105 0.386595 0.247500
0.157226 0.447203 0.247500
0.158826 0.518450 0.247500
0.165387 0.607467 0.247500
0.187217 0.694870 0.247500
0.216565 0.810795 0.247500
0.298221 0.889837 0.247500
0.510267 0.961871 0.247500
1.000000 0.977747 0.247500
0.000000 0.492805 0.247500
0.019308 0.496209 0.247500
0.038129 0.510267 0.247500
0.055093 0.536560 0.247500
0.071259 0.575660 0.247500
0.085427 0.631644 0.247500
0.100728 0.696142 0.247500
0.120394 0.762048 0.247500
0.147063 0.825524 0.247500
0.193786 0.895171 0.247500
0.268723 0.939062 0.247500
0.496209 0.980692 0.247500
1.000000 0.988712 0.247500
0.000000 1.000000 0.247500
0.011288 1.000000 0.247500
0.022253 1.000000 0.247500
0.032569 1.000000 0.247500
0.043676 1.000000 0.247500
0.056639 1.000000 0.247500
0.073895 1.000000 0.247500
0.096290 1.000000 0.247500
0.127479 1.000000 0.247500
0.178721 1.000000 0.247500
0.250873 1.000000 0.247500
0.492805 1.000000 0.247500
1.000000 1.000000 0.247500
0.000000 0.000000 0.330000
0.507196 0.000000 0.330000
0.749127 0.000000 0.330000
0.821279 0.000000 0.330000
0.872521 0.000000 0.330000
0.903710 0.000000 0.330000
0.926105 0.000000 0.330000
0.943361 0.000000 0.330000
0.956324 0.000000 0.330000
0.967431 0.000000 0.330000
0.977747 0.000000 0.330000
0.988712 0.000000 0.330000
1.000000 0.000000 0.330000
0.000000 0.011288 0.330000
0.503792 0.019308 0.330000
0.731277 0.060939 0.330000
0.806213 0.104829 0.330000
0.852937 0.174477 0.330000
0.879606 0.237953 0.330000
0.899272 0.303859 0.330000
0.914573 0.368357 0.330000
0.928741 0.424341 0.330000
0.944907 0.463441 0.330000
0.961871 0.489734 0.330000
0.980692 0.503792 0.330000
1.000000 0.507196 0.330000
0.000000 0.022253 0.330000
0.489734 0.038129 0.330000
0.701779 0.110163 0.330000
0.783435 0.189205 0.330000
0.812783 0.305130 0.330000
0.834614 0.392533 0.330000
0.841174 0.481550 0.330000
0.842774 0.552797 0.330000
0.843895 0.613405 0.330000
0.860336 0.661600 0.330000
0.889837 0.701779 0.330000
0.939062 0.731277 0.330000
1.000000 0.749127 0.330000
0.000000 0.032569 0.330000
0.463441 0.055093 0.330000
0.661600 0.139664 0.330000
0.740421 0.239908 0.330000
0.750225 0.362535 0.330000
0.762493 0.456783 0.330000
0.745652 0.545117 0.330000
0.735009 0.619061 0.330000
0.731029 0.685819 0.330000
0.760092 0.740421 0.330000
0.810795 0.783435 0.330000
0.895171 0.806214 0.330000
1.000000 0.821279 0.330000
0.000000 0.043676 0.330000
0.424341 0.071259 0.330000
0.613405 0.156105 0.330000
0.685819 0.268971 0.330000
0.686610 0.388335 0.330000
0.680978 0.485273 0.330000
0.645669 0.563068 0.330000
0.628336 0.630121 0.330000
0.611665 0.686610 0.330000
0.637465 0.750225 0.330000
0.694870 0.812783 0.330000