# vtk DataFile Version 2.0
Mesh for Fierro
ASCII 
DATASET UNSTRUCTURED_GRID

POINTS 845 float
0.000000 0.000000 0.000000
0.192732 0.000000 0.000000
0.360117 0.000000 0.000000
0.496076 0.000000 0.000000
0.600633 0.000000 0.000000
0.683393 0.000000 0.000000
0.751593 0.000000 0.000000
0.805967 0.000000 0.000000
0.852050 0.000000 0.000000
0.892472 0.000000 0.000000
0.931363 0.000000 0.000000
0.965266 0.000000 0.000000
1.000000 0.000000 0.000000
0.000000 0.034734 0.000000
0.189880 0.038065 0.000000
0.355868 0.045818 0.000000
0.489650 0.059464 0.000000
0.593526 0.075396 0.000000
0.674612 0.093800 0.000000
0.741603 0.113535 0.000000
0.795732 0.133207 0.000000
0.840836 0.152998 0.000000
0.883254 0.169460 0.000000
0.922842 0.181714 0.000000
0.961936 0.189880 0.000000
1.000000 0.192732 0.000000
0.000000 0.068637 0.000000
0.181714 0.077158 0.000000
0.341571 0.092590 0.000000
0.470470 0.117344 0.000000
0.571370 0.146870 0.000000
0.649399 0.180980 0.000000
0.714396 0.217376 0.000000
0.769270 0.253595 0.000000
0.816473 0.289767 0.000000
0.862818 0.319348 0.000000
0.907410 0.341571 0.000000
0.954182 0.355868 0.000000
1.000000 0.360117 0.000000
0.000000 0.107528 0.000000
0.169460 0.116746 0.000000
0.319348 0.137182 0.000000
0.441159 0.171585 0.000000
0.538021 0.212674 0.000000
0.611241 0.259633 0.000000
0.672144 0.309537 0.000000
0.726486 0.356619 0.000000
0.775987 0.402640 0.000000
0.828415 0.441159 0.000000
0.882656 0.470470 0.000000
0.940537 0.489650 0.000000
1.000000 0.496076 0.000000
0.000000 0.147950 0.000000
0.152998 0.159164 0.000000
0.289767 0.183527 0.000000
0.402640 0.224013 0.000000
0.495748 0.274599 0.000000
0.562758 0.330728 0.000000
0.619507 0.389892 0.000000
0.673256 0.444546 0.000000
0.725401 0.495748 0.000000
0.787326 0.538021 0.000000
0.853130 0.571370 0.000000
0.924605 0.593526 0.000000
1.000000 0.600633 0.000000
0.000000 0.194033 0.000000
0.133207 0.204268 0.000000
0.253595 0.230730 0.000000
0.356619 0.273514 0.000000
0.444546 0.326744 0.000000
0.507145 0.385538 0.000000
0.561325 0.447415 0.000000
0.614462 0.507145 0.000000
0.669272 0.562758 0.000000
0.740367 0.611241 0.000000
0.819020 0.649399 0.000000
0.906200 0.674612 0.000000
1.000000 0.683393 0.000000
0.000000 0.248407 0.000000
0.113535 0.258397 0.000000
0.217376 0.285604 0.000000
0.309537 0.327856 0.000000
0.389892 0.380493 0.000000
0.447415 0.438675 0.000000
0.500000 0.500000 0.000000
0.552585 0.561325 0.000000
0.610108 0.619507 0.000000
0.690463 0.672144 0.000000
0.782624 0.714396 0.000000
0.886465 0.741603 0.000000
1.000000 0.751593 0.000000
0.000000 0.316607 0.000000
0.093800 0.325388 0.000000
0.180980 0.350601 0.000000
0.259633 0.388759 0.000000
0.330728 0.437242 0.000000
0.385538 0.492855 0.000000
0.438675 0.552585 0.000000
0.492855 0.614462 0.000000
0.555454 0.673256 0.000000
0.643381 0.726486 0.000000
0.746405 0.769270 0.000000
0.866794 0.795732 0.000000
1.000000 0.805967 0.000000
0.000000 0.399367 0.000000
0.075396 0.406474 0.000000
0.146870 0.428630 0.000000
0.212674 0.461979 0.000000
0.274599 0.504252 0.000000
0.326744 0.555454 0.000000
0.380493 0.610108 0.000000
0.437242 0.669272 0.000000
0.504252 0.725401 0.000000
0.597360 0.775987 0.000000
0.710233 0.816473 0.000000
0.847003 0.840836 0.000000
1.000000 0.852050 0.000000
0.000000 0.503924 0.000000
0.059464 0.510350 0.000000
0.117344 0.529530 0.000000
0.171585 0.558841 0.000000
0.224013 0.597360 0.000000
0.273514 0.643381 0.000000
0.327856 0.690463 0.000000
0.388759 0.740367 0.000000
0.461979 0.787326 0.000000
0.558841 0.828415 0.000000
0.680652 0.862818 0.000000
0.830541 0.883254 0.000000
1.000000 0.892472 0.000000
0.000000 0.639883 0.000000
0.045818 0.644132 0.000000
0.092590 0.658429 0.000000
0.137182 0.680652 0.000000
0.183527 0.710233 0.000000
0.230730 0.746405 0.000000
0.285604 0.782624 0.000000
0.350601 0.819020 0.000000
0.428630 0.853130 0.000000
0.529530 0.882656 0.000000
0.658429 0.907410 0.000000
0.818286 0.922842 0.000000
1.000000 0.931363 0.000000
0.000000 0.807269 0.000000
0.038065 0.810121 0.000000
0.077158 0.818286 0.000000
0.116746 0.830541 0.000000
0.159164 0.847003 0.000000
0.204268 0.866794 0.000000
0.258397 0.886465 0.000000
0.325388 0.906200 0.000000
0.406474 0.924605 0.000000
0.510350 0.940537 0.000000
0.644132 0.954182 0.000000
0.810121 0.961936 0.000000
1.000000 0.965266 0.000000
0.000000 1.000000 0.000000
0.034734 1.000000 0.000000
0.068637 1.000000 0.000000
0.107528 1.000000 0.000000
0.147950 1.000000 0.000000
0.194033 1.000000 0.000000
0.248407 1.000000 0.000000
0.316607 1.000000 0.000000
0.399367 1.000000 0.000000
0.503924 1.000000 0.000000
0.639883 1.000000 0.000000
0.807269 1.000000 0.000000
1.000000 1.000000 0.000000
0.000000 0.000000 0.082500
0.192732 0.000000 0.082500
0.360117 0.000000 0.082500
0.496076 0.000000 0.082500
0.600633 0.000000 0.082500
0.683393 0.000000 0.082500
0.751593 0.000000 0.082500
0.805967 0.000000 0.082500
0.852050 0.000000 0.082500
0.892472 0.000000 0.082500
0.931363 0.000000 0.082500
0.965266 0.000000 0.082500
1.000000 0.000000 0.082500
0.000000 0.034734 0.082500
0.189880 0.038065 0.082500
0.355868 0.045818 0.082500
0.489650 0.059464 0.082500
0.593526 0.075396 0.082500
0.674612 0.093800 0.082500
0.741603 0.113535 0.082500
0.795732 0.133207 0.082500
0.840836 0.152998 0.082500
0.883254 0.169460 0.082500
0.922842 0.181714 0.082500
0.961936 0.189880 0.082500
1.000000 0.192732 0.082500
0.000000 0.068637 0.082500
0.181714 0.077158 0.082500
0.341571 0.092590 0.082500
0.470470 0.117344 0.082500
0.571370 0.146870 0.082500
0.649399 0.180980 0.082500
0.714396 0.217376 0.082500
0.769270 0.253595 0.082500
0.816473 0.289767 0.082500
0.862818 0.319348 0.082500
0.907410 0.341571 0.082500
0.954182 0.355868 0.082500
1.000000 0.360117 0.082500
0.000000 0.107528 0.082500
0.169460 0.116746 0.082500
0.319348 0.137182 0.082500
0.441159 0.171585 0.082500
0.538021 0.212674 0.082500
0.611241 0.259633 0.082500
0.672144 0.309537 0.082500
0.726486 0.356619 0.082500
0.775987 0.402640 0.082500
0.828415 0.441159 0.082500
0.882656 0.470470 0.082500
0.940537 0.489650 0.082500
1.000000 0.496076 0.082500
0.000000 0.147950 0.082500
0.152998 0.159164 0.082500
0.289767 0.183527 0.082500
0.402640 0.224013 0.082500
0.495748 0.274599 0.082500
0.562758 0.330728 0.082500
0.619507 0.389892 0.082500
0.673256 0.444546 0.082500
0.725401 0.495748 0.082500
0.787326 0.538021 0.082500
0.853130 0.571370 0.082500
0.924605 0.593526 0.082500
1.000000 0.600633 0.082500
0.000000 0.194033 0.082500
0.133207 0.204268 0.082500
0.253595 0.230730 0.082500
0.356619 0.273514 0.082500
0.444546 0.326744 0.082500
0.507145 0.385538 0.082500
0.561325 0.447415 0.082500
0.614462 0.507145 0.082500
0.669272 0.562758 0.082500
0.740367 0.611241 0.082500
0.819020 0.649399 0.082500
0.906200 0.674612 0.082500
1.000000 0.683393 0.082500
0.000000 0.248407 0.082500
0.113535 0.258397 0.082500
0.217376 0.285604 0.082500
0.309537 0.327856 0.082500
0.389892 0.380493 0.082500
0.447415 0.438675 0.082500
0.500000 0.500000 0.082500
0.552585 0.561325 0.082500
0.610108 0.619507 0.082500
0.690463 0.672144 0.082500
0.782624 0.714396 0.082500
0.886465 0.741603 0.082500
1.000000 0.751593 0.082500
0.000000 0.316607 0.082500
0.093800 0.325388 0.082500
0.180980 0.350601 0.082500
0.259633 0.388759 0.082500
0.330728 0.437242 0.082500
0.385538 0.492855 0.082500
0.438675 0.552585 0.082500
0.492855 0.614462 0.082500
0.555454 0.673256 0.082500
0.643381 0.726486 0.082500
0.746405 0.769270 0.082500
0.866794 0.795732 0.082500
1.000000 0.805967 0.082500
0.000000 0.399367 0.082500
0.075396 0.406474 0.082500
0.146870 0.428630 0.082500
0.212674 0.461979 0.082500
0.274599 0.504252 0.082500
0.326744 0.555454 0.082500
0.380493 0.610108 0.082500
0.437242 0.669272 0.082500
0.504252 0.725401 0.082500
0.597360 0.775987 0.082500
0.710233 0.816473 0.082500
0.847003 0.840836 0.082500
1.000000 0.852050 0.082500
0.000000 0.503924 0.082500
0.059464 0.510350 0.082500
0.117344 0.529530 0.082500
0.171585 0.558841 0.082500
0.224013 0.597360 0.082500
0.273514 0.643381 0.082500
0.327856 0.690463 0.082500
0.388759 0.740367 0.082500
0.461979 0.787326 0.082500
0.558841 0.828415 0.082500
0.680652 0.862818 0.082500
0.830541 0.883254 0.082500
1.000000 0.892472 0.082500
0.000000 0.639883 0.082500
0.045818 0.644132 0.082500
0.092590 0.658429 0.082500
0.137182 0.680652 0.082500
0.183527 0.710233 0.082500
0.230730 0.746405 0.082500
0.285604 0.782624 0.082500
0.350601 0.819020 0.082500
0.428630 0.853130 0.082500
0.529530 0.882656 0.082500
0.658429 0.907410 0.082500
0.818286 0.922842 0.082500
1.000000 0.931363 0.082500
0.000000 0.807269 0.082500
0.038065 0.810121 0.082500
0.077158 0.818286 0.082500
0.116746 0.830541 0.082500
0.159164 0.847003 0.082500
0.204268 0.866794 0.082500
0.258397 0.886465 0.082500
0.325388 0.906200 0.082500
0.406474 0.924605 0.082500
0.510350 0.940537 0.082500
0.644132 0.954182 0.082500
0.810121 0.961936 0.082500
1.000000 0.965266 0.082500
0.000000 1.000000 0.082500
0.034734 1.000000 0.082500
0.068637 1.000000 0.082500
0.107528 1.000000 0.082500
0.147950 1.000000 0.082500
0.194033 1.000000 0.082500
0.248407 1.000000 0.082500
0.316607 1.000000 0.082500
0.399367 1.000000 0.082500
0.503924 1.000000 0.082500
0.639883 1.000000 0.082500
0.807269 1.000000 0.082500
1.000000 1.000000 0.082500
0.000000 0.000000 0.165000
0.192732 0.000000 0.165000
0.360117 0.000000 0.165000
0.496076 0.000000 0.165000
0.600633 0.000000 0.165000
0.683393 0.000000 0.165000
0.751593 0.000000 0.165000
0.805967 0.000000 0.165000
0.852050 0.000000 0.165000
0.892472 0.000000 0.165000
0.931363 0.000000 0.165000
0.965266 0.000000 0.165000
1.000000 0.000000 0.165000
0.000000 0.034734 0.165000
0.189880 0.038065 0.165000
0.355868 0.045818 0.165000
0.489650 0.059464 0.165000
0.593526 0.075396 0.165000
0.674612 0.093800 0.165000
0.741603 0.113535 0.165000
0.795732 0.133207 0.165000
0.840836 0.152998 0.165000
0.883254 0.169460 0.165000
0.922842 0.181714 0.165000
0.961936 0.189880 0.165000
1.000000 0.192732 0.165000
0.000000 0.068637 0.165000
0.181714 0.077158 0.165000
[...]
POINT_DATA 845 
VECTORS pos float 
0.000000 0.000000 0.000000
0.192732 0.000000 0.000000
0.360117 0.000000 0.000000
0.496076 0.000000 0.000000
0.600633 0.000000 0.000000
0.683393 0.000000 0.000000
0.751593 0.000000 0.000000
0.805967 0.000000 0.000000
0.852050 0.000000 0.000000
0.892472 0.000000 0.000000
0.931363 0.000000 0.000000
0.965266 0.000000 0.000000
1.000000 0.000000 0.000000
0.000000 0.034734 0.000000
0.189880 0.038065 0.000000
0.355868 0.045818 0.000000
0.489650 0.059464 0.000000
0.593526 0.075396 0.000000
0.674612 0.093800 0.000000
0.741603 0.113535 0.000000
0.795732 0.133207 0.000000
0.840836 0.152998 0.000000
0.883254 0.169460 0.000000
0.922842 0.181714 0.000000
0.961936 0.189880 0.000000
1.000000 0.192732 0.000000
0.000000 0.068637 0.000000
0.181714 0.077158 0.000000
0.341571 0.092590 0.000000
0.470470 0.117344 0.000000
0.571370 0.146870 0.000000
0.649399 0.180980 0.000000
0.714396 0.217376 0.000000
0.769270 0.253595 0.000000
0.816473 0.289767 0.000000
0.862818 0.319348 0.000000
0.907410 0.341571 0.000000
0.954182 0.355868 0.000000
1.000000 0.360117 0.000000
0.000000 0.107528 0.000000
0.169460 0.116746 0.000000
0.319348 0.137182 0.000000
0.441159 0.171585 0.000000
0.538021 0.212674 0.000000
0.611241 0.259633 0.000000
0.672144 0.309537 0.000000
0.726486 0.356619 0.000000
0.775987 0.402640 0.000000
0.828415 0.441159 0.000000
0.882656 0.470470 0.000000
0.940537 0.489650 0.000000
1.000000 0.496076 0.000000
0.000000 0.147950 0.000000
0.152998 0.159164 0.000000
0.289767 0.183527 0.000000
0.402640 0.224013 0.000000
0.495748 0.274599 0.000000
0.562758 0.330728 0.000000
0.619507 0.389892 0.000000
0.673256 0.444546 0.000000
0.725401 0.495748 0.000000
0.787326 0.538021 0.000000
0.853130 0.571370 0.000000
0.924605 0.593526 0.000000
1.000000 0.600633 0.000000
0.000000 0.194033 0.000000
0.133207 0.204268 0.000000
0.253595 0.230730 0.000000
0.356619 0.273514 0.000000
0.444546 0.326744 0.000000
0.507145 0.385538 0.000000
0.561325 0.447415 0.000000
0.614462 0.507145 0.000000
0.669272 0.562758 0.000000
0.740367 0.611241 0.000000
0.819020 0.649399 0.000000
0.906200 0.674612 0.000000
1.000000 0.683393 0.000000
0.000000 0.248407 0.000000
0.113535 0.258397 0.000000
0.217376 0.285604 0.000000
0.309537 0.327856 0.000000
0.389892 0.380493 0.000000
0.447415 0.438675 0.000000
0.500000 0.500000 0.000000
0.552585 0.561325 0.000000
0.610108 0.619507 0.000000
0.690463 0.672144 0.000000
0.782624 0.714396 0.000000
0.886465 0.741603 0.000000
1.000000 0.751593 0.000000
0.000000 0.316607 0.000000
0.093800 0.325388 0.000000
0.180980 0.350601 0.000000
0.259633 0.388759 0.000000
0.330728 0.437242 0.000000
0.385538 0.492855 0.000000
0.438675 0.552585 0.000000
0.492855 0.614462 0.000000
0.555454 0.673256 0.000000
0.643381 0.726486 0.000000
0.746405 0.769270 0.000000
0.866794 0.795732 0.000000
1.000000 0.805967 0.000000
0.000000 0.399367 0.000000
0.075396 0.406474 0.000000
0.146870 0.428630 0.000000
0.212674 0.461979 0.000000
0.274599 0.504252 0.000000
0.326744 0.555454 0.000000
0.380493 0.610108 0.000000
0.437242 0.669272 0.000000
0.504252 0.725401 0.000000
0.597360 0.775987 0.000000
0.710233 0.816473 0.000000
0.847003 0.840836 0.000000
1.000000 0.852050 0.000000
0.000000 0.503924 0.000000
0.059464 0.510350 0.000000
0.117344 0.529530 0.000000
0.171585 0.558841 0.000000
0.224013 0.597360 0.000000
0.273514 0.643381 0.000000
0.327856 0.690463 0.000000
0.388759 0.740367 0.000000
0.461979 0.787326 0.000000
0.558841 0.828415 0.000000
0.680652 0.862818 0.000000
0.830541 0.883254 0.000000
1.000000 0.892472 0.000000
0.000000 0.639883 0.000000
0.045818 0.644132 0.000000
0.092590 0.658429 0.000000
0.137182 0.680652 0.000000
0.183527 0.710233 0.000000
0.230730 0.746405 0.000000
0.285604 0.782624 0.000000
0.350601 0.819020 0.000000
0.428630 0.853130 0.000000
0.529530 0.882656 0.000000
0.658429 0.907410 0.000000
0.818286 0.922842 0.000000
1.000000 0.931363 0.000000
0.000000 0.807269 0.000000
0.038065 0.810121 0.000000
0.077158 0.818286 0.000000
0.116746 0.830541 0.000000
0.159164 0.847003 0.000000
0.204268 0.866794 0.000000
0.258397 0.886465 0.000000
0.325388 0.906200 0.000000
0.406474 0.924605 0.000000
0.510350 0.940537 0.000000
0.644132 0.954182 0.000000
0.810121 0.961936 0.000000
1.000000 0.965266 0.000000
0.000000 1.000000 0.000000
0.034734 1.000000 0.000000
0.068637 1.000000 0.000000
0.107528 1.000000 0.000000
0.147950 1.000000 0.000000
0.194033 1.000000 0.000000
0.248407 1.000000 0.000000
0.316607 1.000000 0.000000
0.399367 1.000000 0.000000
0.503924 1.000000 0.000000
0.639883 1.000000 0.000000
0.807269 1.000000 0.000000
1.000000 1.000000 0.000000
0.000000 0.000000 0.082500
0.192732 0.000000 0.082500
0.360117 0.000000 0.082500
0.496076 0.000000 0.082500
0.600633 0.000000 0.082500
0.683393 0.000000 0.082500
0.751593 0.000000 0.082500
0.805967 0.000000 0.082500
0.852050 0.000000 0.082500
0.892472 0.000000 0.082500
0.931363 0.000000 0.082500
0.965266 0.000000 0.082500
1.000000 0.000000 0.082500
0.000000 0.034734 0.082500
0.189880 0.038065 0.082500
0.355868 0.045818 0.082500
0.489650 0.059464 0.082500
0.593526 0.075396 0.082500
0.674612 0.093800 0.082500
0.741603 0.113535 0.082500
0.795732 0.133207 0.082500
0.840836 0.152998 0.082500
0.883254 0.169460 0.082500
0.922842 0.181714 0.082500
0.961936 0.189880 0.082500
1.000000 0.192732 0.082500
0.000000 0.068637 0.082500
0.181714 0.077158 0.082500
0.341571 0.092590 0.082500
0.470470 0.117344 0.082500
0.571370 0.146870 0.082500
0.649399 0.180980 0.082500
0.714396 0.217376 0.082500
0.769270 0.253595 0.082500
0.816473 0.289767 0.082500
0.862818 0.319348 0.082500
0.907410 0.341571 0.082500
0.954182 0.355868 0.082500
1.000000 0.360117 0.082500
0.000000 0.107528 0.082500
0.169460 0.116746 0.082500
0.319348 0.137182 0.082500
0.441159 0.171585 0.082500
0.538021 0.212674 0.082500
0.611241 0.259633 0.082500
0.672144 0.309537 0.082500
0.726486 0.356619 0.082500
0.775987 0.402640 0.082500
0.828415 0.441159 0.082500
0.882656 0.470470 0.082500
0.940537 0.489650 0.082500
1.000000 0.496076 0.082500
0.000000 0.147950 0.082500
0.152998 0.159164 0.082500
0.289767 0.183527 0.082500
0.402640 0.224013 0.082500
0.495748 0.274599 0.082500
0.562758 0.330728 0.082500
0.619507 0.389892 0.082500
0.673256 0.444546 0.082500
0.725401 0.495748 0.082500
0.787326 0.538021 0.082500
0.853130 0.571370 0.082500
0.924605 0.593526 0.082500
1.000000 0.600633 0.082500
0.000000 0.194033 0.082500
0.133207 0.204268 0.082500
0.253595 0.230730 0.082500
0.356619 0.273514 0.082500
0.444546 0.326744 0.082500
0.507145 0.385538 0.082500
0.561325 0.447415 0.082500
0.614462 0.507145 0.082500
0.669272 0.562758 0.082500
0.740367 0.611241 0.082500
0.819020 0.649399 0.082500
0.906200 0.674612 0.082500
1.000000 0.683393 0.082500
0.000000 0.248407 0.082500
0.113535 0.258397 0.082500
0.217376 0.285604 0.082500
0.309537 0.327856 0.082500
0.389892 0.380493 0.082500
0.447415 0.438675 0.082500
0.500000 0.500000 0.082500
0.552585 0.561325 0.082500
0.610108 0.619507 0.082500
0.690463 0.672144 0.082500
0.782624 0.714396 0.082500
0.886465 0.741603 0.082500
1.000000 0.751593 0.082500
0.000000 0.316607 0.082500
0.093800 0.325388 0.082500
0.180980 0.350601 0.082500
0.259633 0.388759 0.082500
0.330728 0.437242 0.082500
0.385538 0.492855 0.082500
0.438675 0.552585 0.082500
0.492855 0.614462 0.082500
0.555454 0.673256 0.082500
0.643381 0.726486 0.082500
0.746405 0.769270 0.082500
0.866794 0.795732 0.082500
1.000000 0.805967 0.082500
0.000000 0.399367 0.082500
0.075396 0.406474 0.082500
0.146870 0.428630 0.082500
0.212674 0.461979 0.082500
0.274599 0.504252 0.082500
0.326744 0.555454 0.082500
0.380493 0.610108 0.082500
0.437242 0.669272 0.082500
0.504252 0.725401 0.082500
0.597360 0.775987 0.082500
0.710233 0.816473 0.082500
0.847003 0.840836 0.082500
1.000000 0.852050 0.082500
0.000000 0.503924 0.082500
0.059464 0.510350 0.082500
0.117344 0.529530 0.082500
0.171585 0.558841 0.082500
0.224013 0.597360 0.082500
0.273514 0.643381 0.082500
0.327856 0.690463 0.082500
0.388759 0.740367 0.082500
0.461979 0.787326 0.082500
0.558841 0.828415 0.082500
0.680652 0.862818 0.082500
0.830541 0.883254 0.082500
1.000000 0.892472 0.082500
0.000000 0.639883 0.082500
0.045818 0.644132 0.082500
0.092590 0.658429 0.082500
0.137182 0.680652 0.082500
0.183527 0.710233 0.082500
0.230730 0.746405 0.082500
0.285604 0.782624 0.082500
0.350601 0.819020 0.082500
0.428630 0.853130 0.082500
0.529530 0.882656 0.082500
0.658429 0.907410 0.082500
0.818286 0.922842 0.082500
1.000000 0.931363 0.082500
0.000000 0.807269 0.082500
0.038065 0.810121 0.082500
0.077158 0.818286 0.082500
0.116746 0.830541 0.082500
0.159164 0.847003 0.082500
0.204268 0.866794 0.082500
0.258397 0.886465 0.082500
0.325388 0.906200 0.082500
0.406474 0.924605 0.082500
0.510350 0.940537 0.082500
0.644132 0.954182 0.082500
0.810121 0.961936 0.082500
1.000000 0.965266 0.082500
0.000000 1.000000 0.082500
0.034734 1.000000 0.082500
0.068637 1.000000 0.082500
0.107528 1.000000 0.082500
0.147950 1.000000 0.082500
0.194033 1.000000 0.082500
0.248407 1.000000 0.082500
0.316607 1.000000 0.082500
0.399367 1.000000 0.082500
0.503924 1.000000 0.082500
0.639883 1.000000 0.082500
0.807269 1.000000 0.082500
1.000000 1.000000 0.082500
0.000000 0.000000 0.165000
0.192732 0.000000 0.165000
0.360117 0.000000 0.165000
0.496076 0.000000 0.165000
0.600633 0.000000 0.165000
0.683393 0.000000 0.165000
0.751593 0.000000 0.165000
0.805967 0.000000 0.165000
0.852050 0.000000 0.165000
0.892472 0.000000 0.165000
0.931363 0.000000 0.165000
0.965266 0.000000 0.165000
1.000000 0.000000 0.165000
0.000000 0.034734 0.165000
0.189880 0.038065 0.165000
0.355868 0.045818 0.165000
0.489650 0.059464 0.165000
0.593526 0.075396 0.165000
0.674612 0.093800 0.165000
0.741603 0.113535 0.165000
0.795732 0.133207 0.165000
0.840836 0.152998 0.165000
0.883254 0.169460 0.165000
0.922842 0.181714 0.165000
0.961936 0.189880 0.165000
1.000000 0.192732 0.165000
0.000000 0.068637 0.165000
0.181714 0.077158 0.165000
0.341571 0.092590 0.165000
0.470470 0.117344 0.165000
0.571370 0.146870 0.165000
0.649399 0.180980 0.165000
0.714396 0.217376 0.165000
0.769270 0.253595 0.165000
0.816473 0.289767 0.165000
0.862818 0.319348 0.165000
0.907410 0.341571 0.165000
0.954182 0.355868 0.165000
1.000000 0.360117 0.165000
0.000000 0.107528 0.165000
0.169460 0.116746 0.165000
0.319348 0.137182 0.165000
0.441159 0.171585 0.165000
0.538021 0.212674 0.165000
0.611241 0.259633 0.165000
0.672144 0.309537 0.165000
0.726486 0.356619 0.165000
0.775987 0.402640 0.165000
0.828415 0.441159 0.165000
0.882656 0.470470 0.165000
0.940537 0.489650 0.165000
1.000000 0.496076 0.165000
0.000000 0.147950 0.165000
0.152998 0.159164 0.165000
0.289767 0.183527 0.165000
0.402640 0.224013 0.165000
0.495748 0.274599 0.165000
0.562758 0.330728 0.165000
0.619507 0.389892 0.165000
0.673256 0.444546 0.165000
0.725401 0.495748 0.165000
0.787326 0.538021 0.165000
0.853130 0.571370 0.165000
0.924605 0.593526 0.165000
1.000000 0.600633 0.165000
0.000000 0.194033 0.165000
0.133207 0.204268 0.165000
0.253595 0.230730 0.165000
0.356619 0.273514 0.165000
0.444546 0.326744 0.165000
0.507145 0.385538 0.165000
0.561325 0.447415 0.165000
0.614462 0.507145 0.165000
0.669272 0.562758 0.165000
0.740367 0.611241 0.165000
0.819020 0.649399 0.165000
0.906200 0.674612 0.165000
1.000000 0.683393 0.165000
0.000000 0.248407 0.165000
0.113535 0.258397 0.165000
0.217376 0.285604 0.165000
0.309537 0.327856 0.165000
0.389892 0.380493 0.165000
0.447415 0.438675 0.165000
0.500000 0.500000 0.165000
0.552585 0.561325 0.165000
0.610108 0.619507 0.165000
0.690463 0.672144 0.165000
0.782624 0.714396 0.165000
0.886465 0.741603 0.165000
1.000000 0.751593 0.165000
0.000000 0.316607 0.165000
0.093800 0.325388 0.165000
0.180980 0.350601 0.165000
0.259633 0.388759 0.165000
0.330728 0.437242 0.165000
0.385538 0.492855 0.165000
0.438675 0.552585 0.165000
0.492855 0.614462 0.165000
0.555454 0.673256 0.165000
0.643381 0.726486 0.165000
0.746405 0.769270 0.165000
0.866794 0.795732 0.165000
1.000000 0.805967 0.165000
0.000000 0.399367 0.165000
0.075396 0.406474 0.165000
0.146870 0.428630 0.165000
0.212674 0.461979 0.165000
0.274599 0.504252 0.165000
0.326744 0.555454 0.165000
0.380493 0.610108 0.165000
0.437242 0.669272 0.165000
0.504252 0.725401 0.165000
0.597360 0.775987 0.165000
0.710233 0.816473 0.165000
0.847003 0.840836 0.165000
1.000000 0.852050 0.165000
0.000000 0.503924 0.165000
0.059464 0.510350 0.165000
0.117344 0.529530 0.165000
0.171585 0.558841 0.165000
0.224013 0.597360 0.165000
0.273514 0.643381 0.165000
0.327856 0.690463 0.165000
0.388759 0.740367 0.165000
0.461979 0.787326 0.165000
0.558841 0.828415 0.165000
0.680652 0.862818 0.165000
0.830541 0.883254 0.165000
1.000000 0.892472 0.165000
0.000000 0.639883 0.165000
0.045818 0.644132 0.165000
0.092590 0.658429 0.165000
0.137182 0.680652 0.165000
0.183527 0.710233 0.165000
0.230730 0.746405 0.165000
0.285604 0.782624 0.165000
0.350601 0.819020 0.165000
0.428630 0.853130 0.165000
0.529530 0.882656 0.165000
0.658429 0.907410 0.165000
0.818286 0.922842 0.165000
1.000000 0.931363 0.165000
0.000000 0.807269 0.165000
0.038065 0.810121 0.165000
0.077158 0.818286 0.165000
0.116746 0.830541 0.165000
0.159164 0.847003 0.165000
0.204268 0.866794 0.165000
0.258397 0.886465 0.165000
0.325388 0.906200 0.165000
0.406474 0.924605 0.165000
0.510350 0.940537 0.165000
0.644132 0.954182 0.165000
0.810121 0.961936 0.165000
1.000000 0.965266 0.165000
0.000000 1.000000 0.165000
0.034734 1.000000 0.165000
0.068637 1.000000 0.165000
0.107528 1.000000 0.165000
0.147950 1.000000 0.165000
0.194033 1.000000 0.165000
0.248407 1.000000 0.165000
0.316607 1.000000 0.165000
0.399367 1.000000 0.165000
0.503924 1.000000 0.165000
0.639883 1.000000 0.165000
0.807269 1.000000 0.165000
1.000000 1.000000 0.165000
0.000000 0.000000 0.247500
0.192732 0.000000 0.247500
0.360117 0.000000 0.247500
0.496076 0.000000 0.247500
0.600633 0.000000 0.247500
0.683393 0.000000 0.247500
0.751593 0.000000 0.247500
0.805967 0.000000 0.247500
0.852050 0.000000 0.247500
0.892472 0.000000 0.247500
0.931363 0.000000 0.247500
0.965266 0.000000 0.247500
1.000000 0.000000 0.247500
0.000000 0.034734 0.247500
0.189880 0.038065 0.247500
0.355868 0.045818 0.247500
0.489650 0.059464 0.247500
0.593526 0.075396 0.247500
0.674612 0.093800 0.247500
0.741603 0.113535 0.247500
0.795732 0.133207 0.247500
0.840836 0.152998 0.247500
0.883254 0.169460 0.247500
0.922842 0.181714 0.247500
0.961936 0.189880 0.247500
1.000000 0.192732 0.247500
0.000000 0.068637 0.247500
0.181714 0.077158 0.247500
0.341571 0.092590 0.247500
0.470470 0.117344 0.247500
0.571370 0.146870 0.247500
0.649399 0.180980 0.247500
0.714396 0.217376 0.247500
0.769270 0.253595 0.247500
0.816473 0.289767 0.247500
0.862818 0.319348 0.247500
0.907410 0.341571 0.247500
0.954182 0.355868 0.247500
1.000000 0.360117 0.247500
0.000000 0.107528 0.247500
0.169460 0.116746 0.247500
0.319348 0.137182 0.247500
0.441159 0.171585 0.247500
0.538021 0.212674 0.247500
0.611241 0.259633 0.247500
0.672144 0.309537 0.247500
0.726486 0.356619 0.247500
0.775987 0.402640 0.247500
0.828415 0.441159 0.247500
0.882656 0.470470 0.247500
0.940537 0.489650 0.247500
1.000000 0.496076 0.247500
0.000000 0.147950 0.247500
0.152998 0.159164 0.247500
0.289767 0.183527 0.247500
0.402640 0.224013 0.247500
0.495748 0.274599 0.247500
0.562758 0.330728 0.247500
0.619507 0.389892 0.247500
0.673256 0.444546 0.247500
0.725401 0.495748 0.247500
0.787326 0.538021 0.247500
0.853130 0.571370 0.247500
0.924605 0.593526 0.247500
1.000000 0.600633 0.247500
0.000000 0.194033 0.247500
0.133207 0.204268 0.247500
0.253595 0.230730 0.247500
0.356619 0.273514 0.247500
0.444546 0.326744 0.247500
0.507145 0.385538 0.247500
0.561325 0.447415 0.247500
0.614462 0.507145 0.247500
0.669272 0.562758 0.247500
0.740367 0.611241 0.247500
0.819020 0.649399 0.247500
0.906200 0.674612 0.247500
1.000000 0.683393 0.247500
0.000000 0.248407 0.247500
0.113535 0.258397 0.247500
0.217376 0.285604 0.247500
0.309537 0.327856 0.247500
0.389892 0.380493 0.247500
0.447415 0.438675 0.247500
0.500000 0.500000 0.247500
0.552585 0.561325 0.247500
0.610108 0.619507 0.247500
0.690463 0.672144 0.247500
0.782624 0.714396 0.247500
0.886465 0.741603 0.247500
1.000000 0.751593 0.247500
0.000000 0.316607 0.247500
0.093800 0.325388 0.247500
0.180980 0.350601 0.247500
0.259633 0.388759 0.247500
0.330728 0.437242 0.247500
0.385538 0.492855 0.247500
0.438675 0.552585 0.247500
0.492855 0.614462 0.247500
0.555454 0.673256 0.247500
0.643381 0.726486 0.247500
0.746405 0.769270 0.247500
0.866794 0.795732 0.247500
1.000000 0.805967 0.247500
0.000000 0.399367 0.247500
0.075396 0.406474 0.247500
0.146870 0.428630 0.247500
0.212674 0.461979 0.247500
0.274599 0.504252 0.247500
0.326744 0.555454 0.247500
0.380493 0.610108 0.247500
0.437242 0.669272 0.247500
0.504252 0.725401 0.247500
0.597360 0.775987 0.247500
0.710233 0.816473 0.247500
0.847003 0.840836 0.247500
1.000000 0.852050 0.247500
0.000000 0.503924 0.247500
0.059464 0.510350 0.247500
0.117344 0.529530 0.247500
0.171585 0.558841 0.247500
0.224013 0.597360 0.247500
0.273514 0.643381 0.247500
0.327856 0.690463 0.247500
0.388759 0.740367 0.247500
0.461979 0.787326 0.247500
0.558841 0.828415 0.247500
0.680652 0.862818 0.247500
0.830541 0.883254 0.247500
1.000000 0.892472 0.247500
0.000000 0.639883 0.247500
0.045818 0.644132 0.247500
0.092590 0.658429 0.247500
0.137182 0.680652 0.247500
0.183527 0.710233 0.247500
0.230730 0.746405 0.247500
0.285604 0.782624 0.247500
0.350601 0.819020 0.247500
0.428630 0.853130 0.247500
0.529530 0.882656 0.247500
0.658429 0.907410 0.247500
0.818286 0.922842 0.247500
1.000000 0.931363 0.247500
0.000000 0.807269 0.247500
0.038065 0.810121 0.247500
0.077158 0.818286 0.247500
0.116746 0.830541 0.247500
0.159164 0.847003 0.247500
0.204268 0.866794 0.247500
0.258397 0.886465 0.247500
0.325388 0.906200 0.247500
0.406474 0.924605 0.247500
0.510350 0.940537 0.247500
0.644132 0.954182 0.247500
0.810121 0.961936 0.247500
1.000000 0.965266 0.247500
0.000000 1.000000 0.247500
0.034734 1.000000 0.247500
0.068637 1.000000 0.247500
0.107528 1.000000 0.247500
0.147950 1.000000 0.247500
0.194033 1.000000 0.247500
0.248407 1.000000 0.247500
0.316607 1.000000 0.247500
0.399367 1.000000 0.247500
0.503924 1.000000 0.247500
0.639883 1.000000 0.247500
0.807269 1.000000 0.247500
1.000000 1.000000 0.247500
0.000000 0.000000 0.330000
0.192732 0.000000 0.330000
0.360117 0.000000 0.330000
0.496076 0.000000 0.330000
0.600633 0.000000 0.330000
0.683393 0.000000 0.330000
0.751593 0.000000 0.330000
0.805967 0.000000 0.330000
0.852050 0.000000 0.330000
0.892472 0.000000 0.330000
0.931363 0.000000 0.330000
0.965266 0.000000 0.330000
1.000000 0.000000 0.330000
0.000000 0.034734 0.330000
0.189880 0.038065 0.330000
0.355868 0.045818 0.330000
0.489650 0.059464 0.330000
0.593526 0.075396 0.330000
0.674612 0.093800 0.330000
0.741603 0.113535 0.330000
0.795732 0.133207 0.330000
0.840836 0.152998 0.330000
0.883254 0.169460 0.330000
0.922842 0.181714 0.330000
0.961936 0.189880 0.330000
1.000000 0.192732 0.330000
0.000000 0.068637 0.330000
0.181714 0.077158 0.330000
0.341571 0.092590 0.330000
0.470470 0.117344 0.330000
0.571370 0.146870 0.330000
0.649399 0.180980 0.330000
0.714396 0.217376 0.330000
0.769270 0.253595 0.330000
0.816473 0.289767 0.330000
0.862818 0.319348 0.330000
0.907410 0.341571 0.330000
0.954182 0.355868 0.330000
1.000000 0.360117 0.330000
0.000000 0.107528 0.330000
0.169460 0.116746 0.330000
0.319348 0.137182 0.330000
0.441159 0.171585 0.330000
0.538021 0.212674 0.330000
0.611241 0.259633 0.330000
0.672144 0.309537 0.330000
0.726486 0.356619 0.330000
0.775987 0.402640 0.330000
0.828415 0.441159 0.330000
0.882656 0.470470 0.330000
0.940537 0.489650 0.330000
1.000000 0.496076 0.330000
0.000000 0.147950 0.330000
0.152998 0.159164 0.330000
0.289767 0.183527 0.330000
0.402640 0.224013 0.330000
0.495748 0.274599 0.330000
0.562758 0.330728 0.330000
0.619507 0.389892 0.330000
0.673256 0.444546 0.330000
0.725401 0.495748 0.330000
0.787326 0.538021 0.330000
0.853130 0.571370 0.330000