# vtk DataFile Version 2.0
Mesh for Fierro
ASCII 
DATASET UNSTRUCTURED_GRID

POINTS 845 float
0.000000 0.000000 0.000000
0.094199 0.000000 0.000000
0.187681 0.000000 0.000000
0.279280 0.000000 0.000000
0.369834 0.000000 0.000000
0.455647 0.000000 0.000000
0.539757 0.000000 0.000000
0.621306 0.000000 0.000000
0.699204 0.000000 0.000000
0.777405 0.000000 0.000000
0.852338 0.000000 0.000000
0.926630 0.000000 0.000000
1.000000 0.000000 0.000000
0.000000 0.073371 0.000000
0.093844 0.073728 0.000000
0.186990 0.074765 0.000000
0.278309 0.076425 0.000000
0.368626 0.078600 0.000000
0.454323 0.081117 0.000000
0.538406 0.083794 0.000000
0.619994 0.086467 0.000000
0.698037 0.088984 0.000000
0.776433 0.091147 0.000000
0.851651 0.092805 0.000000
0.926272 0.093844 0.000000
1.000000 0.094199 0.000000
0.000000 0.147662 0.000000
0.092805 0.148349 0.000000
0.184993 0.150356 0.000000
0.275476 0.153544 0.000000
0.365201 0.157706 0.000000
0.450479 0.162513 0.000000
0.534422 0.167636 0.000000
0.616135 0.172797 0.000000
0.694577 0.177623 0.000000
0.773595 0.181786 0.000000
0.849644 0.184993 0.000000
0.925235 0.186990 0.000000
1.000000 0.187681 0.000000
0.000000 0.222595 0.000000
0.091147 0.223567 0.000000
0.181786 0.226405 0.000000
0.270958 0.230933 0.000000
0.359658 0.236856 0.000000
0.444353 0.243687 0.000000
0.528099 0.250980 0.000000
0.610015 0.258252 0.000000
0.689091 0.265068 0.000000
0.769067 0.270958 0.000000
0.846456 0.275476 0.000000
0.923575 0.278309 0.000000
1.000000 0.279280 0.000000
0.000000 0.300796 0.000000
0.088984 0.301963 0.000000
0.177623 0.305423 0.000000
0.265068 0.310909 0.000000
0.352501 0.318074 0.000000
0.436356 0.326372 0.000000
0.519838 0.335257 0.000000
0.602015 0.344209 0.000000
0.681926 0.352501 0.000000
0.763144 0.359658 0.000000
0.842294 0.365201 0.000000
0.921400 0.368626 0.000000
1.000000 0.369834 0.000000
0.000000 0.378694 0.000000
0.086467 0.380006 0.000000
0.172797 0.383865 0.000000
0.258252 0.389985 0.000000
0.344209 0.397985 0.000000
0.427113 0.407225 0.000000
0.510286 0.417169 0.000000
0.592775 0.427113 0.000000
0.673628 0.436356 0.000000
0.756313 0.444353 0.000000
0.837487 0.450479 0.000000
0.918883 0.454323 0.000000
1.000000 0.455647 0.000000
0.000000 0.460243 0.000000
0.083794 0.461594 0.000000
0.167636 0.465578 0.000000
0.250980 0.471901 0.000000
0.335257 0.480162 0.000000
0.417169 0.489714 0.000000
0.500000 0.500000 0.000000
0.582831 0.510286 0.000000
0.664743 0.519838 0.000000
0.749020 0.528099 0.000000
0.832364 0.534422 0.000000
0.916206 0.538406 0.000000
1.000000 0.539757 0.000000
0.000000 0.544353 0.000000
0.081117 0.545677 0.000000
0.162513 0.549521 0.000000
0.243687 0.555647 0.000000
0.326372 0.563644 0.000000
0.407225 0.572887 0.000000
0.489714 0.582831 0.000000
0.572887 0.592775 0.000000
0.655791 0.602015 0.000000
0.741748 0.610015 0.000000
0.827203 0.616135 0.000000
0.913533 0.619994 0.000000
1.000000 0.621306 0.000000
0.000000 0.630166 0.000000
0.078600 0.631374 0.000000
0.157706 0.634799 0.000000
0.236856 0.640342 0.000000
0.318074 0.647499 0.000000
0.397985 0.655791 0.000000
0.480162 0.664743 0.000000
0.563644 0.673628 0.000000
0.647499 0.681926 0.000000
0.734932 0.689091 0.000000
0.822377 0.694577 0.000000
0.911016 0.698037 0.000000
1.000000 0.699204 0.000000
0.000000 0.720720 0.000000
0.076425 0.721691 0.000000
0.153544 0.724524 0.000000
0.230933 0.729042 0.000000
0.310909 0.734932 0.000000
0.389985 0.741748 0.000000
0.471901 0.749020 0.000000
0.555647 0.756313 0.000000
0.640342 0.763144 0.000000
0.729042 0.769067 0.000000
0.818214 0.773595 0.000000
0.908853 0.776433 0.000000
1.000000 0.777405 0.000000
0.000000 0.812319 0.000000
0.074765 0.813010 0.000000
0.150356 0.815007 0.000000
0.226405 0.818214 0.000000
0.305423 0.822377 0.000000
0.383865 0.827203 0.000000
0.465578 0.832364 0.000000
0.549521 0.837487 0.000000
0.634799 0.842294 0.000000
0.724524 0.846456 0.000000
0.815007 0.849644 0.000000
0.907195 0.851651 0.000000
1.000000 0.852338 0.000000
0.000000 0.905802 0.000000
0.073728 0.906157 0.000000
0.148349 0.907195 0.000000
0.223567 0.908853 0.000000
0.301963 0.911016 0.000000
0.380006 0.913533 0.000000
0.461594 0.916206 0.000000
0.545677 0.918883 0.000000
0.631374 0.921400 0.000000
0.721691 0.923575 0.000000
0.813010 0.925235 0.000000
0.906157 0.926272 0.000000
1.000000 0.926630 0.000000
0.000000 1.000000 0.000000
0.073371 1.000000 0.000000
0.147662 1.000000 0.000000
0.222595 1.000000 0.000000
0.300796 1.000000 0.000000
0.378694 1.000000 0.000000
0.460243 1.000000 0.000000
0.544353 1.000000 0.000000
0.630166 1.000000 0.000000
0.720720 1.000000 0.000000
0.812319 1.000000 0.000000
0.905802 1.000000 0.000000
1.000000 1.000000 0.000000
0.000000 0.000000 0.082500
0.094199 0.000000 0.082500
0.187681 0.000000 0.082500
0.279280 0.000000 0.082500
0.369834 0.000000 0.082500
0.455647 0.000000 0.082500
0.539757 0.000000 0.082500
0.621306 0.000000 0.082500
0.699204 0.000000 0.082500
0.777405 0.000000 0.082500
0.852338 0.000000 0.082500
0.926630 0.000000 0.082500
1.000000 0.000000 0.082500
0.000000 0.073371 0.082500
0.093844 0.073728 0.082500
0.186990 0.074765 0.082500
0.278309 0.076425 0.082500
0.368626 0.078600 0.082500
0.454323 0.081117 0.082500
0.538406 0.083794 0.082500
0.619994 0.086467 0.082500
0.698037 0.088984 0.082500
0.776433 0.091147 0.082500
0.851651 0.092805 0.082500
0.926272 0.093844 0.082500
1.000000 0.094199 0.082500
0.000000 0.147662 0.082500
0.092805 0.148349 0.082500
0.184993 0.150356 0.082500
0.275476 0.153544 0.082500
0.365201 0.157706 0.082500
0.450479 0.162513 0.082500
0.534422 0.167636 0.082500
0.616135 0.172797 0.082500
0.694577 0.177623 0.082500
0.773595 0.181786 0.082500
0.849644 0.184993 0.082500
0.925235 0.186990 0.082500
1.000000 0.187681 0.082500
0.000000 0.222595 0.082500
0.091147 0.223567 0.082500
0.181786 0.226405 0.082500
0.270958 0.230933 0.082500
0.359658 0.236856 0.082500
0.444353 0.243687 0.082500
0.528099 0.250980 0.082500
0.610015 0.258252 0.082500
0.689091 0.265068 0.082500
0.769067 0.270958 0.082500
0.846456 0.275476 0.082500
0.923575 0.278309 0.082500
1.000000 0.279280 0.082500
0.000000 0.300796 0.082500
0.088984 0.301963 0.082500
0.177623 0.305423 0.082500
0.265068 0.310909 0.082500
0.352501 0.318074 0.082500
0.436356 0.326372 0.082500
0.519838 0.335257 0.082500
0.602015 0.344209 0.082500
0.681926 0.352501 0.082500
0.763144 0.359658 0.082500
0.842294 0.365201 0.082500
0.921400 0.368626 0.082500
1.000000 0.369834 0.082500
0.000000 0.378694 0.082500
0.086467 0.380006 0.082500
0.172797 0.383865 0.082500
0.258252 0.389985 0.082500
0.344209 0.397985 0.082500
0.427113 0.407225 0.082500
0.510286 0.417169 0.082500
0.592775 0.427113 0.082500
0.673628 0.436356 0.082500
0.756313 0.444353 0.082500
0.837487 0.450479 0.082500
0.918883 0.454323 0.082500
1.000000 0.455647 0.082500
0.000000 0.460243 0.082500
0.083794 0.461594 0.082500
0.167636 0.465578 0.082500
0.250980 0.471901 0.082500
0.335257 0.480162 0.082500
0.417169 0.489714 0.082500
0.500000 0.500000 0.082500
0.582831 0.510286 0.082500
0.664743 0.519838 0.082500
0.749020 0.528099 0.082500
0.832364 0.534422 0.082500
0.916206 0.538406 0.082500
1.000000 0.539757 0.082500
0.000000 0.544353 0.082500
0.081117 0.545677 0.082500
0.162513 0.549521 0.082500
0.243687 0.555647 0.082500
0.326372 0.563644 0.082500
0.407225 0.572887 0.082500
0.489714 0.582831 0.082500
0.572887 0.592775 0.082500
0.655791 0.602015 0.082500
0.741748 0.610015 0.082500
0.827203 0.616135 0.082500
0.913533 0.619994 0.082500
1.000000 0.621306 0.082500
0.000000 0.630166 0.082500
0.078600 0.631374 0.082500
0.157706 0.634799 0.082500
0.236856 0.640342 0.082500
0.318074 0.647499 0.082500
0.397985 0.655791 0.082500
0.480162 0.664743 0.082500
0.563644 0.673628 0.082500
0.647499 0.681926 0.082500
0.734932 0.689091 0.082500
0.822377 0.694577 0.082500
0.911016 0.698037 0.082500
1.000000 0.699204 0.082500
0.000000 0.720720 0.082500
0.076425 0.721691 0.082500
0.153544 0.724524 0.082500
0.230933 0.729042 0.082500
0.310909 0.734932 0.082500
0.389985 0.741748 0.082500
0.471901 0.749020 0.082500
0.555647 0.756313 0.082500
0.640342 0.763144 0.082500
0.729042 0.769067 0.082500
0.818214 0.773595 0.082500
0.908853 0.776433 0.082500
1.000000 0.777405 0.082500
0.000000 0.812319 0.082500
0.074765 0.813010 0.082500
0.150356 0.815007 0.082500
0.226405 0.818214 0.082500
0.305423 0.822377 0.082500
0.383865 0.827203 0.082500
0.465578 0.832364 0.082500
0.549521 0.837487 0.082500
0.634799 0.842294 0.082500
0.724524 0.846456 0.082500
0.815007 0.849644 0.082500
0.907195 0.851651 0.082500
1.000000 0.852338 0.082500
0.000000 0.905802 0.082500
0.073728 0.906157 0.082500
0.148349 0.907195 0.082500
0.223567 0.908853 0.082500
0.301963 0.911016 0.082500
0.380006 0.913533 0.082500
0.461594 0.916206 0.082500
0.545677 0.918883 0.082500
0.631374 0.921400 0.082500
0.721691 0.923575 0.082500
0.813010 0.925235 0.082500
0.906157 0.926272 0.082500
1.000000 0.926630 0.082500
0.000000 1.000000 0.082500
0.073371 1.000000 0.082500
0.147662 1.000000 0.082500
0.222595 1.000000 0.082500
0.300796 1.000000 0.082500
0.378694 1.000000 0.082500
0.460243 1.000000 0.082500
0.544353 1.000000 0.082500
0.630166 1.000000 0.082500
0.720720 1.000000 0.082500
0.812319 1.000000 0.082500
0.905802 1.000000 0.082500
1.000000 1.000000 0.082500
0.000000 0.000000 0.165000
0.094199 0.000000 0.165000
0.187681 0.000000 0.165000
0.279280 0.000000 0.165000
0.369834 0.000000 0.165000
0.455647 0.000000 0.165000
0.539757 0.000000 0.165000
0.621306 0.000000 0.165000
0.699204 0.000000 0.165000
0.777405 0.000000 0.165000
0.852338 0.000000 0.165000
0.926630 0.000000 0.165000
1.000000 0.000000 0.165000
0.000000 0.073371 0.165000
0.093844 0.073728 0.165000
0.186990 0.074765 0.165000
0.278309 0.076425 0.165000
0.368626 0.078600 0.165000
0.454323 0.081117 0.165000
0.538406 0.083794 0.165000
0.619994 0.086467 0.165000
0.698037 0.088984 0.165000
0.776433 0.091147 0.165000
0.851651 0.092805 0.165000
0.926272 0.093844 0.165000
1.000000 0.094199 0.165000
0.000000 0.147662 0.165000
0.092805 0.148349 0.165000
[...]
POINT_DATA 845 
VECTORS pos float 
0.000000 0.000000 0.000000
0.094199 0.000000 0.000000
0.187681 0.000000 0.000000
0.279280 0.000000 0.000000
0.369834 0.000000 0.000000
0.455647 0.000000 0.000000
0.539757 0.000000 0.000000
0.621306 0.000000 0.000000
0.699204 0.000000 0.000000
0.777405 0.000000 0.000000
0.852338 0.000000 0.000000
0.926630 0.000000 0.000000
1.000000 0.000000 0.000000
0.000000 0.073371 0.000000
0.093844 0.073728 0.000000
0.186990 0.074765 0.000000
0.278309 0.076425 0.000000
0.368626 0.078600 0.000000
0.454323 0.081117 0.000000
0.538406 0.083794 0.000000
0.619994 0.086467 0.000000
0.698037 0.088984 0.000000
0.776433 0.091147 0.000000
0.851651 0.092805 0.000000
0.926272 0.093844 0.000000
1.000000 0.094199 0.000000
0.000000 0.147662 0.000000
0.092805 0.148349 0.000000
0.184993 0.150356 0.000000
0.275476 0.153544 0.000000
0.365201 0.157706 0.000000
0.450479 0.162513 0.000000
0.534422 0.167636 0.000000
0.616135 0.172797 0.000000
0.694577 0.177623 0.000000
0.773595 0.181786 0.000000
0.849644 0.184993 0.000000
0.925235 0.186990 0.000000
1.000000 0.187681 0.000000
0.000000 0.222595 0.000000
0.091147 0.223567 0.000000
0.181786 0.226405 0.000000
0.270958 0.230933 0.000000
0.359658 0.236856 0.000000
0.444353 0.243687 0.000000
0.528099 0.250980 0.000000
0.610015 0.258252 0.000000
0.689091 0.265068 0.000000
0.769067 0.270958 0.000000
0.846456 0.275476 0.000000
0.923575 0.278309 0.000000
1.000000 0.279280 0.000000
0.000000 0.300796 0.000000
0.088984 0.301963 0.000000
0.177623 0.305423 0.000000
0.265068 0.310909 0.000000
0.352501 0.318074 0.000000
0.436356 0.326372 0.000000
0.519838 0.335257 0.000000
0.602015 0.344209 0.000000
0.681926 0.352501 0.000000
0.763144 0.359658 0.000000
0.842294 0.365201 0.000000
0.921400 0.368626 0.000000
1.000000 0.369834 0.000000
0.000000 0.378694 0.000000
0.086467 0.380006 0.000000
0.172797 0.383865 0.000000
0.258252 0.389985 0.000000
0.344209 0.397985 0.000000
0.427113 0.407225 0.000000
0.510286 0.417169 0.000000
0.592775 0.427113 0.000000
0.673628 0.436356 0.000000
0.756313 0.444353 0.000000
0.837487 0.450479 0.000000
0.918883 0.454323 0.000000
1.000000 0.455647 0.000000
0.000000 0.460243 0.000000
0.083794 0.461594 0.000000
0.167636 0.465578 0.000000
0.250980 0.471901 0.000000
0.335257 0.480162 0.000000
0.417169 0.489714 0.000000
0.500000 0.500000 0.000000
0.582831 0.510286 0.000000
0.664743 0.519838 0.000000
0.749020 0.528099 0.000000
0.832364 0.534422 0.000000
0.916206 0.538406 0.000000
1.000000 0.539757 0.000000
0.000000 0.544353 0.000000
0.081117 0.545677 0.000000
0.162513 0.549521 0.000000
0.243687 0.555647 0.000000
0.326372 0.563644 0.000000
0.407225 0.572887 0.000000
0.489714 0.582831 0.000000
0.572887 0.592775 0.000000
0.655791 0.602015 0.000000
0.741748 0.610015 0.000000
0.827203 0.616135 0.000000
0.913533 0.619994 0.000000
1.000000 0.621306 0.000000
0.000000 0.630166 0.000000
0.078600 0.631374 0.000000
0.157706 0.634799 0.000000
0.236856 0.640342 0.000000
0.318074 0.647499 0.000000
0.397985 0.655791 0.000000
0.480162 0.664743 0.000000
0.563644 0.673628 0.000000
0.647499 0.681926 0.000000
0.734932 0.689091 0.000000
0.822377 0.694577 0.000000
0.911016 0.698037 0.000000
1.000000 0.699204 0.000000
0.000000 0.720720 0.000000
0.076425 0.721691 0.000000
0.153544 0.724524 0.000000
0.230933 0.729042 0.000000
0.310909 0.734932 0.000000
0.389985 0.741748 0.000000
0.471901 0.749020 0.000000
0.555647 0.756313 0.000000
0.640342 0.763144 0.000000
0.729042 0.769067 0.000000
0.818214 0.773595 0.000000
0.908853 0.776433 0.000000
1.000000 0.777405 0.000000
0.000000 0.812319 0.000000
0.074765 0.813010 0.000000
0.150356 0.815007 0.000000
0.226405 0.818214 0.000000
0.305423 0.822377 0.000000
0.383865 0.827203 0.000000
0.465578 0.832364 0.000000
0.549521 0.837487 0.000000
0.634799 0.842294 0.000000
0.724524 0.846456 0.000000
0.815007 0.849644 0.000000
0.907195 0.851651 0.000000
1.000000 0.852338 0.000000
0.000000 0.905802 0.000000
0.073728 0.906157 0.000000
0.148349 0.907195 0.000000
0.223567 0.908853 0.000000
0.301963 0.911016 0.000000
0.380006 0.913533 0.000000
0.461594 0.916206 0.000000
0.545677 0.918883 0.000000
0.631374 0.921400 0.000000
0.721691 0.923575 0.000000
0.813010 0.925235 0.000000
0.906157 0.926272 0.000000
1.000000 0.926630 0.000000
0.000000 1.000000 0.000000
0.073371 1.000000 0.000000
0.147662 1.000000 0.000000
0.222595 1.000000 0.000000
0.300796 1.000000 0.000000
0.378694 1.000000 0.000000
0.460243 1.000000 0.000000
0.544353 1.000000 0.000000
0.630166 1.000000 0.000000
0.720720 1.000000 0.000000
0.812319 1.000000 0.000000
0.905802 1.000000 0.000000
1.000000 1.000000 0.000000
0.000000 0.000000 0.082500
0.094199 0.000000 0.082500
0.187681 0.000000 0.082500
0.279280 0.000000 0.082500
0.369834 0.000000 0.082500
0.455647 0.000000 0.082500
0.539757 0.000000 0.082500
0.621306 0.000000 0.082500
0.699204 0.000000 0.082500
0.777405 0.000000 0.082500
0.852338 0.000000 0.082500
0.926630 0.000000 0.082500
1.000000 0.000000 0.082500
0.000000 0.073371 0.082500
0.093844 0.073728 0.082500
0.186990 0.074765 0.082500
0.278309 0.076425 0.082500
0.368626 0.078600 0.082500
0.454323 0.081117 0.082500
0.538406 0.083794 0.082500
0.619994 0.086467 0.082500
0.698037 0.088984 0.082500
0.776433 0.091147 0.082500
0.851651 0.092805 0.082500
0.926272 0.093844 0.082500
1.000000 0.094199 0.082500
0.000000 0.147662 0.082500
0.092805 0.148349 0.082500
0.184993 0.150356 0.082500
0.275476 0.153544 0.082500
0.365201 0.157706 0.082500
0.450479 0.162513 0.082500
0.534422 0.167636 0.082500
0.616135 0.172797 0.082500
0.694577 0.177623 0.082500
0.773595 0.181786 0.082500
0.849644 0.184993 0.082500
0.925235 0.186990 0.082500
1.000000 0.187681 0.082500
0.000000 0.222595 0.082500
0.091147 0.223567 0.082500
0.181786 0.226405 0.082500
0.270958 0.230933 0.082500
0.359658 0.236856 0.082500
0.444353 0.243687 0.082500
0.528099 0.250980 0.082500
0.610015 0.258252 0.082500
0.689091 0.265068 0.082500
0.769067 0.270958 0.082500
0.846456 0.275476 0.082500
0.923575 0.278309 0.082500
1.000000 0.279280 0.082500
0.000000 0.300796 0.082500
0.088984 0.301963 0.082500
0.177623 0.305423 0.082500
0.265068 0.310909 0.082500
0.352501 0.318074 0.082500
0.436356 0.326372 0.082500
0.519838 0.335257 0.082500
0.602015 0.344209 0.082500
0.681926 0.352501 0.082500
0.763144 0.359658 0.082500
0.842294 0.365201 0.082500
0.921400 0.368626 0.082500
1.000000 0.369834 0.082500
0.000000 0.378694 0.082500
0.086467 0.380006 0.082500
0.172797 0.383865 0.082500
0.258252 0.389985 0.082500
0.344209 0.397985 0.082500
0.427113 0.407225 0.082500
0.510286 0.417169 0.082500
0.592775 0.427113 0.082500
0.673628 0.436356 0.082500
0.756313 0.444353 0.082500
0.837487 0.450479 0.082500
0.918883 0.454323 0.082500
1.000000 0.455647 0.082500
0.000000 0.460243 0.082500
0.083794 0.461594 0.082500
0.167636 0.465578 0.082500
0.250980 0.471901 0.082500
0.335257 0.480162 0.082500
0.417169 0.489714 0.082500
0.500000 0.500000 0.082500
0.582831 0.510286 0.082500
0.664743 0.519838 0.082500
0.749020 0.528099 0.082500
0.832364 0.534422 0.082500
0.916206 0.538406 0.082500
1.000000 0.539757 0.082500
0.000000 0.544353 0.082500
0.081117 0.545677 0.082500
0.162513 0.549521 0.082500
0.243687 0.555647 0.082500
0.326372 0.563644 0.082500
0.407225 0.572887 0.082500
0.489714 0.582831 0.082500
0.572887 0.592775 0.082500
0.655791 0.602015 0.082500
0.741748 0.610015 0.082500
0.827203 0.616135 0.082500
0.913533 0.619994 0.082500
1.000000 0.621306 0.082500
0.000000 0.630166 0.082500
0.078600 0.631374 0.082500
0.157706 0.634799 0.082500
0.236856 0.640342 0.082500
0.318074 0.647499 0.082500
0.397985 0.655791 0.082500
0.480162 0.664743 0.082500
0.563644 0.673628 0.082500
0.647499 0.681926 0.082500
0.734932 0.689091 0.082500
0.822377 0.694577 0.082500
0.911016 0.698037 0.082500
1.000000 0.699204 0.082500
0.000000 0.720720 0.082500
0.076425 0.721691 0.082500
0.153544 0.724524 0.082500
0.230933 0.729042 0.082500
0.310909 0.734932 0.082500
0.389985 0.741748 0.082500
0.471901 0.749020 0.082500
0.555647 0.756313 0.082500
0.640342 0.763144 0.082500
0.729042 0.769067 0.082500
0.818214 0.773595 0.082500
0.908853 0.776433 0.082500
1.000000 0.777405 0.082500
0.000000 0.812319 0.082500
0.074765 0.813010 0.082500
0.150356 0.815007 0.082500
0.226405 0.818214 0.082500
0.305423 0.822377 0.082500
0.383865 0.827203 0.082500
0.465578 0.832364 0.082500
0.549521 0.837487 0.082500
0.634799 0.842294 0.082500
0.724524 0.846456 0.082500
0.815007 0.849644 0.082500
0.907195 0.851651 0.082500
1.000000 0.852338 0.082500
0.000000 0.905802 0.082500
0.073728 0.906157 0.082500
0.148349 0.907195 0.082500
0.223567 0.908853 0.082500
0.301963 0.911016 0.082500
0.380006 0.913533 0.082500
0.461594 0.916206 0.082500
0.545677 0.918883 0.082500
0.631374 0.921400 0.082500
0.721691 0.923575 0.082500
0.813010 0.925235 0.082500
0.906157 0.926272 0.082500
1.000000 0.926630 0.082500
0.000000 1.000000 0.082500
0.073371 1.000000 0.082500
0.147662 1.000000 0.082500
0.222595 1.000000 0.082500
0.300796 1.000000 0.082500
0.378694 1.000000 0.082500
0.460243 1.000000 0.082500
0.544353 1.000000 0.082500
0.630166 1.000000 0.082500
0.720720 1.000000 0.082500
0.812319 1.000000 0.082500
0.905802 1.000000 0.082500
1.000000 1.000000 0.082500
0.000000 0.000000 0.165000
0.094199 0.000000 0.165000
0.187681 0.000000 0.165000
0.279280 0.000000 0.165000
0.369834 0.000000 0.165000
0.455647 0.000000 0.165000
0.539757 0.000000 0.165000
0.621306 0.000000 0.165000
0.699204 0.000000 0.165000
0.777405 0.000000 0.165000
0.852338 0.000000 0.165000
0.926630 0.000000 0.165000
1.000000 0.000000 0.165000
0.000000 0.073371 0.165000
0.093844 0.073728 0.165000
0.186990 0.074765 0.165000
0.278309 0.076425 0.165000
0.368626 0.078600 0.165000
0.454323 0.081117 0.165000
0.538406 0.083794 0.165000
0.619994 0.086467 0.165000
0.698037 0.088984 0.165000
0.776433 0.091147 0.165000
0.851651 0.092805 0.165000
0.926272 0.093844 0.165000
1.000000 0.094199 0.165000
0.000000 0.147662 0.165000
0.092805 0.148349 0.165000
0.184993 0.150356 0.165000
0.275476 0.153544 0.165000
0.365201 0.157706 0.165000
0.450479 0.162513 0.165000
0.534422 0.167636 0.165000
0.616135 0.172797 0.165000
0.694577 0.177623 0.165000
0.773595 0.181786 0.165000
0.849644 0.184993 0.165000
0.925235 0.186990 0.165000
1.000000 0.187681 0.165000
0.000000 0.222595 0.165000
0.091147 0.223567 0.165000
0.181786 0.226405 0.165000
0.270958 0.230933 0.165000
0.359658 0.236856 0.165000
0.444353 0.243687 0.165000
0.528099 0.250980 0.165000
0.610015 0.258252 0.165000
0.689091 0.265068 0.165000
0.769067 0.270958 0.165000
0.846456 0.275476 0.165000
0.923575 0.278309 0.165000
1.000000 0.279280 0.165000
0.000000 0.300796 0.165000
0.088984 0.301963 0.165000
0.177623 0.305423 0.165000
0.265068 0.310909 0.165000
0.352501 0.318074 0.165000
0.436356 0.326372 0.165000
0.519838 0.335257 0.165000
0.602015 0.344209 0.165000
0.681926 0.352501 0.165000
0.763144 0.359658 0.165000
0.842294 0.365201 0.165000
0.921400 0.368626 0.165000
1.000000 0.369834 0.165000
0.000000 0.378694 0.165000
0.086467 0.380006 0.165000
0.172797 0.383865 0.165000
0.258252 0.389985 0.165000
0.344209 0.397985 0.165000
0.427113 0.407225 0.165000
0.510286 0.417169 0.165000
0.592775 0.427113 0.165000
0.673628 0.436356 0.165000
0.756313 0.444353 0.165000
0.837487 0.450479 0.165000
0.918883 0.454323 0.165000
1.000000 0.455647 0.165000
0.000000 0.460243 0.165000
0.083794 0.461594 0.165000
0.167636 0.465578 0.165000
0.250980 0.471901 0.165000
0.335257 0.480162 0.165000
0.417169 0.489714 0.165000
0.500000 0.500000 0.165000
0.582831 0.510286 0.165000
0.664743 0.519838 0.165000
0.749020 0.528099 0.165000
0.832364 0.534422 0.165000
0.916206 0.538406 0.165000
1.000000 0.539757 0.165000
0.000000 0.544353 0.165000
0.081117 0.545677 0.165000
0.162513 0.549521 0.165000
0.243687 0.555647 0.165000
0.326372 0.563644 0.165000
0.407225 0.572887 0.165000
0.489714 0.582831 0.165000
0.572887 0.592775 0.165000
0.655791 0.602015 0.165000
0.741748 0.610015 0.165000
0.827203 0.616135 0.165000
0.913533 0.619994 0.165000
1.000000 0.621306 0.165000
0.000000 0.630166 0.165000
0.078600 0.631374 0.165000
0.157706 0.634799 0.165000
0.236856 0.640342 0.165000
0.318074 0.647499 0.165000
0.397985 0.655791 0.165000
0.480162 0.664743 0.165000
0.563644 0.673628 0.165000
0.647499 0.681926 0.165000
0.734932 0.689091 0.165000
0.822377 0.694577 0.165000
0.911016 0.698037 0.165000
1.000000 0.699204 0.165000
0.000000 0.720720 0.165000
0.076425 0.721691 0.165000
0.153544 0.724524 0.165000
0.230933 0.729042 0.165000
0.310909 0.734932 0.165000
0.389985 0.741748 0.165000
0.471901 0.749020 0.165000
0.555647 0.756313 0.165000
0.640342 0.763144 0.165000
0.729042 0.769067 0.165000
0.818214 0.773595 0.165000
0.908853 0.776433 0.165000
1.000000 0.777405 0.165000
0.000000 0.812319 0.165000
0.074765 0.813010 0.165000
0.150356 0.815007 0.165000
0.226405 0.818214 0.165000
0.305423 0.822377 0.165000
0.383865 0.827203 0.165000
0.465578 0.832364 0.165000
0.549521 0.837487 0.165000
0.634799 0.842294 0.165000
0.724524 0.846456 0.165000
0.815007 0.849644 0.165000
0.907195 0.851651 0.165000
1.000000 0.852338 0.165000
0.000000 0.905802 0.165000
0.073728 0.906157 0.165000
0.148349 0.907195 0.165000
0.223567 0.908853 0.165000
0.301963 0.911016 0.165000
0.380006 0.913533 0.165000
0.461594 0.916206 0.165000
0.545677 0.918883 0.165000
0.631374 0.921400 0.165000
0.721691 0.923575 0.165000
0.813010 0.925235 0.165000
0.906157 0.926272 0.165000
1.000000 0.926630 0.165000
0.000000 1.000000 0.165000
0.073371 1.000000 0.165000
0.147662 1.000000 0.165000
0.222595 1.000000 0.165000
0.300796 1.000000 0.165000
0.378694 1.000000 0.165000
0.460243 1.000000 0.165000
0.544353 1.000000 0.165000
0.630166 1.000000 0.165000
0.720720 1.000000 0.165000
0.812319 1.000000 0.165000
0.905802 1.000000 0.165000
1.000000 1.000000 0.165000
0.000000 0.000000 0.247500
0.094199 0.000000 0.247500
0.187681 0.000000 0.247500
0.279280 0.000000 0.247500
0.369834 0.000000 0.247500
0.455647 0.000000 0.247500
0.539757 0.000000 0.247500
0.621306 0.000000 0.247500
0.699204 0.000000 0.247500
0.777405 0.000000 0.247500
0.852338 0.000000 0.247500
0.926630 0.000000 0.247500
1.000000 0.000000 0.247500
0.000000 0.073371 0.247500
0.093844 0.073728 0.247500
0.186990 0.074765 0.247500
0.278309 0.076425 0.247500
0.368626 0.078600 0.247500
0.454323 0.081117 0.247500
0.538406 0.083794 0.247500
0.619994 0.086467 0.247500
0.698037 0.088984 0.247500
0.776433 0.091147 0.247500
0.851651 0.092805 0.247500
0.926272 0.093844 0.247500
1.000000 0.094199 0.247500
0.000000 0.147662 0.247500
0.092805 0.148349 0.247500
0.184993 0.150356 0.247500
0.275476 0.153544 0.247500
0.365201 0.157706 0.247500
0.450479 0.162513 0.247500
0.534422 0.167636 0.247500
0.616135 0.172797 0.247500
0.694577 0.177623 0.247500
0.773595 0.181786 0.247500
0.849644 0.184993 0.247500
0.925235 0.186990 0.247500
1.000000 0.187681 0.247500
0.000000 0.222595 0.247500
0.091147 0.223567 0.247500
0.181786 0.226405 0.247500
0.270958 0.230933 0.247500
0.359658 0.236856 0.247500
0.444353 0.243687 0.247500
0.528099 0.250980 0.247500
0.610015 0.258252 0.247500
0.689091 0.265068 0.247500
0.769067 0.270958 0.247500
0.846456 0.275476 0.247500
0.923575 0.278309 0.247500
1.000000 0.279280 0.247500
0.000000 0.300796 0.247500
0.088984 0.301963 0.247500
0.177623 0.305423 0.247500
0.265068 0.310909 0.247500
0.352501 0.318074 0.247500
0.436356 0.326372 0.247500
0.519838 0.335257 0.247500
0.602015 0.344209 0.247500
0.681926 0.352501 0.247500
0.763144 0.359658 0.247500
0.842294 0.365201 0.247500
0.921400 0.368626 0.247500
1.000000 0.369834 0.247500
0.000000 0.378694 0.247500
0.086467 0.380006 0.247500
0.172797 0.383865 0.247500
0.258252 0.389985 0.247500
0.344209 0.397985 0.247500
0.427113 0.407225 0.247500
0.510286 0.417169 0.247500
0.592775 0.427113 0.247500
0.673628 0.436356 0.247500
0.756313 0.444353 0.247500
0.837487 0.450479 0.247500
0.918883 0.454323 0.247500
1.000000 0.455647 0.247500
0.000000 0.460243 0.247500
0.083794 0.461594 0.247500
0.167636 0.465578 0.247500
0.250980 0.471901 0.247500
0.335257 0.480162 0.247500
0.417169 0.489714 0.247500
0.500000 0.500000 0.247500
0.582831 0.510286 0.247500
0.664743 0.519838 0.247500
0.749020 0.528099 0.247500
0.832364 0.534422 0.247500
0.916206 0.538406 0.247500
1.000000 0.539757 0.247500
0.000000 0.544353 0.247500
0.081117 0.545677 0.247500
0.162513 0.549521 0.247500
0.243687 0.555647 0.247500
0.326372 0.563644 0.247500
0.407225 0.572887 0.247500
0.489714 0.582831 0.247500
0.572887 0.592775 0.247500
0.655791 0.602015 0.247500
0.741748 0.610015 0.247500
0.827203 0.616135 0.247500
0.913533 0.619994 0.247500
1.000000 0.621306 0.247500
0.000000 0.630166 0.247500
0.078600 0.631374 0.247500
0.157706 0.634799 0.247500
0.236856 0.640342 0.247500
0.318074 0.647499 0.247500
0.397985 0.655791 0.247500
0.480162 0.664743 0.247500
0.563644 0.673628 0.247500
0.647499 0.681926 0.247500
0.734932 0.689091 0.247500
0.822377 0.694577 0.247500
0.911016 0.698037 0.247500
1.000000 0.699204 0.247500
0.000000 0.720720 0.247500
0.076425 0.721691 0.247500
0.153544 0.724524 0.247500
0.230933 0.729042 0.247500
0.310909 0.734932 0.247500
0.389985 0.741748 0.247500
0.471901 0.749020 0.247500
0.555647 0.756313 0.247500
0.640342 0.763144 0.247500
0.729042 0.769067 0.247500
0.818214 0.773595 0.247500
0.908853 0.776433 0.247500
1.000000 0.777405 0.247500
0.000000 0.812319 0.247500
0.074765 0.813010 0.247500
0.150356 0.815007 0.247500
0.226405 0.818214 0.247500
0.305423 0.822377 0.247500
0.383865 0.827203 0.247500
0.465578 0.832364 0.247500
0.549521 0.837487 0.247500
0.634799 0.842294 0.247500
0.724524 0.846456 0.247500
0.815007 0.849644 0.247500
0.907195 0.851651 0.247500
1.000000 0.852338 0.247500
0.000000 0.905802 0.247500
0.073728 0.906157 0.247500
0.148349 0.907195 0.247500
0.223567 0.908853 0.247500
0.301963 0.911016 0.247500
0.380006 0.913533 0.247500
0.461594 0.916206 0.247500
0.545677 0.918883 0.247500
0.631374 0.921400 0.247500
0.721691 0.923575 0.247500
0.813010 0.925235 0.247500
0.906157 0.926272 0.247500
1.000000 0.926630 0.247500
0.000000 1.000000 0.247500
0.073371 1.000000 0.247500
0.147662 1.000000 0.247500
0.222595 1.000000 0.247500
0.300796 1.000000 0.247500
0.378694 1.000000 0.247500
0.460243 1.000000 0.247500
0.544353 1.000000 0.247500
0.630166 1.000000 0.247500
0.720720 1.000000 0.247500
0.812319 1.000000 0.247500
0.905802 1.000000 0.247500
1.000000 1.000000 0.247500
0.000000 0.000000 0.330000
0.094199 0.000000 0.330000
0.187681 0.000000 0.330000
0.279280 0.000000 0.330000
0.369834 0.000000 0.330000
0.455647 0.000000 0.330000
0.539757 0.000000 0.330000
0.621306 0.000000 0.330000
0.699204 0.000000 0.330000
0.777405 0.000000 0.330000
0.852338 0.000000 0.330000
0.926630 0.000000 0.330000
1.000000 0.000000 0.330000
0.000000 0.073371 0.330000
0.093844 0.073728 0.330000
0.186990 0.074765 0.330000
0.278309 0.076425 0.330000
0.368626 0.078600 0.330000
0.454323 0.081117 0.330000
0.538406 0.083794 0.330000
0.619994 0.086467 0.330000
0.698037 0.088984 0.330000
0.776433 0.091147 0.330000
0.851651 0.092805 0.330000
0.926272 0.093844 0.330000
1.000000 0.094199 0.330000
0.000000 0.147662 0.330000
0.092805 0.148349 0.330000
0.184993 0.150356 0.330000
0.275476 0.153544 0.330000
0.365201 0.157706 0.330000
0.450479 0.162513 0.330000
0.534422 0.167636 0.330000
0.616135 0.172797 0.330000
0.694577 0.177623 0.330000
0.773595 0.181786 0.330000
0.849644 0.184993 0.330000
0.925235 0.186990 0.330000
1.000000 0.187681 0.330000
0.000000 0.222595 0.330000
0.091147 0.223567 0.330000
0.181786 0.226405 0.330000
0.270958 0.230933 0.330000
0.359658 0.236856 0.330000
0.444353 0.243687 0.330000
0.528099 0.250980 0.330000
0.610015 0.258252 0.330000
0.689091 0.265068 0.330000
0.769067 0.270958 0.330000
0.846456 0.275476 0.330000
0.923575 0.278309 0.330000
1.000000 0.279280 0.330000
0.000000 0.300796 0.330000
0.088984 0.301963 0.330000
0.177623 0.305423 0.330000
0.265068 0.310909 0.330000
0.352501 0.318074 0.330000
0.436356 0.326372 0.330000
0.519838 0.335257 0.330000
0.602015 0.344209 0.330000
0.681926 0.352501 0.330000
0.763144 0.359658 0.330000
0.842294 0.365201 0.330000