# vtk DataFile Version 2.0
Mesh for Fierro
ASCII 
DATASET UNSTRUCTURED_GRID

POINTS 845 float
0.000000 0.000000 0.000000
0.560968 0.000000 0.000000
0.888382 0.000000 0.000000
0.914853 0.000000 0.000000
0.934681 0.000000 0.000000
0.950554 0.000000 0.000000
0.962463 0.000000 0.000000
0.970169 0.000000 0.000000
0.975440 0.000000 0.000000
0.980111 0.000000 0.000000
0.984266 0.000000 0.000000
0.992287 0.000000 0.000000
1.000000 0.000000 0.000000
0.000000 0.007713 0.000000
0.588520 0.016576 0.000000
0.853862 0.078236 0.000000
0.868157 0.197954 0.000000
0.896365 0.273558 0.000000
0.905333 0.367639 0.000000
0.913378 0.451567 0.000000
0.921625 0.526764 0.000000
0.930761 0.585211 0.000000
0.943937 0.622676 0.000000
0.959913 0.638724 0.000000
0.983424 0.588520 0.000000
1.000000 0.560968 0.000000
0.000000 0.015734 0.000000
0.638724 0.040088 0.000000
0.800608 0.150648 0.000000
0.841063 0.288508 0.000000
0.844605 0.455312 0.000000
0.846358 0.545966 0.000000
0.838165 0.624146 0.000000
0.816769 0.673213 0.000000
0.804234 0.711246 0.000000
0.812926 0.749729 0.000000
0.849352 0.800608 0.000000
0.921764 0.853862 0.000000
1.000000 0.888382 0.000000
0.000000 0.019889 0.000000
0.622676 0.056063 0.000000
0.749729 0.187074 0.000000
0.814412 0.345947 0.000000
0.761968 0.484942 0.000000
0.757835 0.570260 0.000000
0.710291 0.641817 0.000000
0.663403 0.706660 0.000000
0.645092 0.767399 0.000000
0.654053 0.814412 0.000000
0.711493 0.841064 0.000000
0.802046 0.868157 0.000000
1.000000 0.914853 0.000000
0.000000 0.024560 0.000000
0.585211 0.069239 0.000000
0.711246 0.195766 0.000000
0.767399 0.354908 0.000000
0.701749 0.478508 0.000000
0.665915 0.575727 0.000000
0.595631 0.622141 0.000000
0.556665 0.667854 0.000000
0.521492 0.701749 0.000000
0.515058 0.761968 0.000000
0.544688 0.844605 0.000000
0.726442 0.896365 0.000000
1.000000 0.934681 0.000000
0.000000 0.029831 0.000000
0.526764 0.078375 0.000000
0.673213 0.183231 0.000000
0.706660 0.336597 0.000000
0.667854 0.443335 0.000000
0.612186 0.523018 0.000000
0.542269 0.563749 0.000000
0.476982 0.612186 0.000000
0.424273 0.665915 0.000000
0.429740 0.757835 0.000000
0.454034 0.846358 0.000000
0.632362 0.905333 0.000000
1.000000 0.950554 0.000000
0.000000 0.037537 0.000000
0.451567 0.086622 0.000000
0.624146 0.161835 0.000000
0.641817 0.289709 0.000000
0.622141 0.404369 0.000000
0.563749 0.457731 0.000000
0.500000 0.500000 0.000000
0.436251 0.542269 0.000000
0.377859 0.595631 0.000000
0.358183 0.710291 0.000000
0.375854 0.838165 0.000000
0.548434 0.913378 0.000000
1.000000 0.962463 0.000000
0.000000 0.049445 0.000000
0.367639 0.094667 0.000000
0.545966 0.153642 0.000000
0.570260 0.242165 0.000000
0.575727 0.334085 0.000000
0.523018 0.387814 0.000000
0.457731 0.436251 0.000000
0.387814 0.476982 0.000000
0.332146 0.556665 0.000000
0.293340 0.663403 0.000000
0.326787 0.816769 0.000000
0.473237 0.921625 0.000000
1.000000 0.970169 0.000000
0.000000 0.065319 0.000000
0.273558 0.103635 0.000000
0.455312 0.155395 0.000000
0.484942 0.238032 0.000000
0.478508 0.298251 0.000000
0.443335 0.332146 0.000000
0.404369 0.377859 0.000000
0.334085 0.424273 0.000000
0.298251 0.521492 0.000000
0.232601 0.645092 0.000000
0.288753 0.804234 0.000000
0.414791 0.930762 0.000000
1.000000 0.975440 0.000000
0.000000 0.085147 0.000000
0.197954 0.131843 0.000000
0.288507 0.158936 0.000000
0.345947 0.185588 0.000000
0.354908 0.232601 0.000000
0.336597 0.293340 0.000000
0.289709 0.358183 0.000000
0.242165 0.429740 0.000000
0.238032 0.515058 0.000000
0.185588 0.654053 0.000000
0.250271 0.812925 0.000000
0.377325 0.943937 0.000000
1.000000 0.980111 0.000000
0.000000 0.111618 0.000000
0.078236 0.146138 0.000000
0.150648 0.199392 0.000000
0.187075 0.250271 0.000000
0.195766 0.288753 0.000000
0.183231 0.326787 0.000000
0.161835 0.375854 0.000000
0.153642 0.454034 0.000000
0.155395 0.544688 0.000000
0.158936 0.711493 0.000000
0.199392 0.849352 0.000000
0.361277 0.959913 0.000000
1.000000 0.984266 0.000000
0.000000 0.439032 0.000000
0.016576 0.411481 0.000000
0.040087 0.361277 0.000000
0.056063 0.377325 0.000000
0.069238 0.414791 0.000000
0.078375 0.473237 0.000000
0.086622 0.548434 0.000000
0.094667 0.632362 0.000000
0.103634 0.726443 0.000000
0.131843 0.802047 0.000000
0.146138 0.921764 0.000000
0.411481 0.983424 0.000000
1.000000 0.992287 0.000000
0.000000 1.000000 0.000000
0.007713 1.000000 0.000000
0.015734 1.000000 0.000000
0.019889 1.000000 0.000000
0.024560 1.000000 0.000000
0.029831 1.000000 0.000000
0.037537 1.000000 0.000000
0.049445 1.000000 0.000000
0.065319 1.000000 0.000000
0.085147 1.000000 0.000000
0.111618 1.000000 0.000000
0.439032 1.000000 0.000000
1.000000 1.000000 0.000000
0.000000 0.000000 0.082500
0.560968 0.000000 0.082500
0.888382 0.000000 0.082500
0.914853 0.000000 0.082500
0.934681 0.000000 0.082500
0.950554 0.000000 0.082500
0.962463 0.000000 0.082500
0.970169 0.000000 0.082500
0.975440 0.000000 0.082500
0.980111 0.000000 0.082500
0.984266 0.000000 0.082500
0.992287 0.000000 0.082500
1.000000 0.000000 0.082500
0.000000 0.007713 0.082500
0.588520 0.016576 0.082500
0.853862 0.078236 0.082500
0.868157 0.197954 0.082500
0.896365 0.273558 0.082500
0.905333 0.367639 0.082500
0.913378 0.451567 0.082500
0.921625 0.526764 0.082500
0.930761 0.585211 0.082500
0.943937 0.622676 0.082500
0.959913 0.638724 0.082500
0.983424 0.588520 0.082500
1.000000 0.560968 0.082500
0.000000 0.015734 0.082500
0.638724 0.040088 0.082500
0.800608 0.150648 0.082500
0.841063 0.288508 0.082500
0.844605 0.455312 0.082500
0.846358 0.545966 0.082500
0.838165 0.624146 0.082500
0.816769 0.673213 0.082500
0.804234 0.711246 0.082500
0.812926 0.749729 0.082500
0.849352 0.800608 0.082500
0.921764 0.853862 0.082500
1.000000 0.888382 0.082500
0.000000 0.019889 0.082500
0.622676 0.056063 0.082500
0.749729 0.187074 0.082500
0.814412 0.345947 0.082500
0.761968 0.484942 0.082500
0.757835 0.570260 0.082500
0.710291 0.641817 0.082500
0.663403 0.706660 0.082500
0.645092 0.767399 0.082500
0.654053 0.814412 0.082500
0.711493 0.841064 0.082500
0.802046 0.868157 0.082500
1.000000 0.914853 0.082500
0.000000 0.024560 0.082500
0.585211 0.069239 0.082500
0.711246 0.195766 0.082500
0.767399 0.354908 0.082500
0.701749 0.478508 0.082500
0.665915 0.575727 0.082500
0.595631 0.622141 0.082500
0.556665 0.667854 0.082500
0.521492 0.701749 0.082500
0.515058 0.761968 0.082500
0.544688 0.844605 0.082500
0.726442 0.896365 0.082500
1.000000 0.934681 0.082500
0.000000 0.029831 0.082500
0.526764 0.078375 0.082500
0.673213 0.183231 0.082500
0.706660 0.336597 0.082500
0.667854 0.443335 0.082500
0.612186 0.523018 0.082500
0.542269 0.563749 0.082500
0.476982 0.612186 0.082500
0.424273 0.665915 0.082500
0.429740 0.757835 0.082500
0.454034 0.846358 0.082500
0.632362 0.905333 0.082500
1.000000 0.950554 0.082500
0.000000 0.037537 0.082500
0.451567 0.086622 0.082500
0.624146 0.161835 0.082500
0.641817 0.289709 0.082500
0.622141 0.404369 0.082500
0.563749 0.457731 0.082500
0.500000 0.500000 0.082500
0.436251 0.542269 0.082500
0.377859 0.595631 0.082500
0.358183 0.710291 0.082500
0.375854 0.838165 0.082500
0.548434 0.913378 0.082500
1.000000 0.962463 0.082500
0.000000 0.049445 0.082500
0.367639 0.094667 0.082500
0.545966 0.153642 0.082500
0.570260 0.242165 0.082500
0.575727 0.334085 0.082500
0.523018 0.387814 0.082500
0.457731 0.436251 0.082500
0.387814 0.476982 0.082500
0.332146 0.556665 0.082500
0.293340 0.663403 0.082500
0.326787 0.816769 0.082500
0.473237 0.921625 0.082500
1.000000 0.970169 0.082500
0.000000 0.065319 0.082500
0.273558 0.103635 0.082500
0.455312 0.155395 0.082500
0.484942 0.238032 0.082500
0.478508 0.298251 0.082500
0.443335 0.332146 0.082500
0.404369 0.377859 0.082500
0.334085 0.424273 0.082500
0.298251 0.521492 0.082500
0.232601 0.645092 0.082500
0.288753 0.804234 0.082500
0.414791 0.930762 0.082500
1.000000 0.975440 0.082500
0.000000 0.085147 0.082500
0.197954 0.131843 0.082500
0.288507 0.158936 0.082500
0.345947 0.185588 0.082500
0.354908 0.232601 0.082500
0.336597 0.293340 0.082500
0.289709 0.358183 0.082500
0.242165 0.429740 0.082500
0.238032 0.515058 0.082500
0.185588 0.654053 0.082500
0.250271 0.812925 0.082500
0.377325 0.943937 0.082500
1.000000 0.980111 0.082500
0.000000 0.111618 0.082500
0.078236 0.146138 0.082500
0.150648 0.199392 0.082500
0.187075 0.250271 0.082500
0.195766 0.288753 0.082500
0.183231 0.326787 0.082500
0.161835 0.375854 0.082500
0.153642 0.454034 0.082500
0.155395 0.544688 0.082500
0.158936 0.711493 0.082500
0.199392 0.849352 0.082500
0.361277 0.959913 0.082500
1.000000 0.984266 0.082500
0.000000 0.439032 0.082500
0.016576 0.411481 0.082500
0.040087 0.361277 0.082500
0.056063 0.377325 0.082500
0.069238 0.414791 0.082500
0.078375 0.473237 0.082500
0.086622 0.548434 0.082500
0.094667 0.632362 0.082500
0.103634 0.726443 0.082500
0.131843 0.802047 0.082500
0.146138 0.921764 0.082500
0.411481 0.983424 0.082500
1.000000 0.992287 0.082500
0.000000 1.000000 0.082500
0.007713 1.000000 0.082500
0.015734 1.000000 0.082500
0.019889 1.000000 0.082500
0.024560 1.000000 0.082500
0.029831 1.000000 0.082500
0.037537 1.000000 0.082500
0.049445 1.000000 0.082500
0.065319 1.000000 0.082500
0.085147 1.000000 0.082500
0.111618 1.000000 0.082500
0.439032 1.000000 0.082500
1.000000 1.000000 0.082500
0.000000 0.000000 0.165000
0.560968 0.000000 0.165000
0.888382 0.000000 0.165000
0.914853 0.000000 0.165000
0.934681 0.000000 0.165000
0.950554 0.000000 0.165000
0.962463 0.000000 0.165000
0.970169 0.000000 0.165000
0.975440 0.000000 0.165000
0.980111 0.000000 0.165000
0.984266 0.000000 0.165000
0.992287 0.000000 0.165000
1.000000 0.000000 0.165000
0.000000 0.007713 0.165000
0.588520 0.016576 0.165000
0.853862 0.078236 0.165000
0.868157 0.197954 0.165000
0.896365 0.273558 0.165000
0.905333 0.367639 0.165000
0.913378 0.451567 0.165000
0.921625 0.526764 0.165000
0.930761 0.585211 0.165000
0.943937 0.622676 0.165000
0.959913 0.638724 0.165000
0.983424 0.588520 0.165000
1.000000 0.560968 0.165000
0.000000 0.015734 0.165000
0.638724 0.040088 0.165000
[...]
POINT_DATA 845 
VECTORS pos float 
0.000000 0.000000 0.000000
0.560968 0.000000 0.000000
0.888382 0.000000 0.000000
0.914853 0.000000 0.000000
0.934681 0.000000 0.000000
0.950554 0.000000 0.000000
0.962463 0.000000 0.000000
0.970169 0.000000 0.000000
0.975440 0.000000 0.000000
0.980111 0.000000 0.000000
0.984266 0.000000 0.000000
0.992287 0.000000 0.000000
1.000000 0.000000 0.000000
0.000000 0.007713 0.000000
0.588520 0.016576 0.000000
0.853862 0.078236 0.000000
0.868157 0.197954 0.000000
0.896365 0.273558 0.000000
0.905333 0.367639 0.000000
0.913378 0.451567 0.000000
0.921625 0.526764 0.000000
0.930761 0.585211 0.000000
0.943937 0.622676 0.000000
0.959913 0.638724 0.000000
0.983424 0.588520 0.000000
1.000000 0.560968 0.000000
0.000000 0.015734 0.000000
0.638724 0.040088 0.000000
0.800608 0.150648 0.000000
0.841063 0.288508 0.000000
0.844605 0.455312 0.000000
0.846358 0.545966 0.000000
0.838165 0.624146 0.000000
0.816769 0.673213 0.000000
0.804234 0.711246 0.000000
0.812926 0.749729 0.000000
0.849352 0.800608 0.000000
0.921764 0.853862 0.000000
1.000000 0.888382 0.000000
0.000000 0.019889 0.000000
0.622676 0.056063 0.000000
0.749729 0.187074 0.000000
0.814412 0.345947 0.000000
0.761968 0.484942 0.000000
0.757835 0.570260 0.000000
0.710291 0.641817 0.000000
0.663403 0.706660 0.000000
0.645092 0.767399 0.000000
0.654053 0.814412 0.000000
0.711493 0.841064 0.000000
0.802046 0.868157 0.000000
1.000000 0.914853 0.000000
0.000000 0.024560 0.000000
0.585211 0.069239 0.000000
0.711246 0.195766 0.000000
0.767399 0.354908 0.000000
0.701749 0.478508 0.000000
0.665915 0.575727 0.000000
0.595631 0.622141 0.000000
0.556665 0.667854 0.000000
0.521492 0.701749 0.000000
0.515058 0.761968 0.000000
0.544688 0.844605 0.000000
0.726442 0.896365 0.000000
1.000000 0.934681 0.000000
0.000000 0.029831 0.000000
0.526764 0.078375 0.000000
0.673213 0.183231 0.000000
0.706660 0.336597 0.000000
0.667854 0.443335 0.000000
0.612186 0.523018 0.000000
0.542269 0.563749 0.000000
0.476982 0.612186 0.000000
0.424273 0.665915 0.000000
0.429740 0.757835 0.000000
0.454034 0.846358 0.000000
0.632362 0.905333 0.000000
1.000000 0.950554 0.000000
0.000000 0.037537 0.000000
0.451567 0.086622 0.000000
0.624146 0.161835 0.000000
0.641817 0.289709 0.000000
0.622141 0.404369 0.000000
0.563749 0.457731 0.000000
0.500000 0.500000 0.000000
0.436251 0.542269 0.000000
0.377859 0.595631 0.000000
0.358183 0.710291 0.000000
0.375854 0.838165 0.000000
0.548434 0.913378 0.000000
1.000000 0.962463 0.000000
0.000000 0.049445 0.000000
0.367639 0.094667 0.000000
0.545966 0.153642 0.000000
0.570260 0.242165 0.000000
0.575727 0.334085 0.000000
0.523018 0.387814 0.000000
0.457731 0.436251 0.000000
0.387814 0.476982 0.000000
0.332146 0.556665 0.000000
0.293340 0.663403 0.000000
0.326787 0.816769 0.000000
0.473237 0.921625 0.000000
1.000000 0.970169 0.000000
0.000000 0.065319 0.000000
0.273558 0.103635 0.000000
0.455312 0.155395 0.000000
0.484942 0.238032 0.000000
0.478508 0.298251 0.000000
0.443335 0.332146 0.000000
0.404369 0.377859 0.000000
0.334085 0.424273 0.000000
0.298251 0.521492 0.000000
0.232601 0.645092 0.000000
0.288753 0.804234 0.000000
0.414791 0.930762 0.000000
1.000000 0.975440 0.000000
0.000000 0.085147 0.000000
0.197954 0.131843 0.000000
0.288507 0.158936 0.000000
0.345947 0.185588 0.000000
0.354908 0.232601 0.000000
0.336597 0.293340 0.000000
0.289709 0.358183 0.000000
0.242165 0.429740 0.000000
0.238032 0.515058 0.000000
0.185588 0.654053 0.000000
0.250271 0.812925 0.000000
0.377325 0.943937 0.000000
1.000000 0.980111 0.000000
0.000000 0.111618 0.000000
0.078236 0.146138 0.000000
0.150648 0.199392 0.000000
0.187075 0.250271 0.000000
0.195766 0.288753 0.000000
0.183231 0.326787 0.000000
0.161835 0.375854 0.000000
0.153642 0.454034 0.000000
0.155395 0.544688 0.000000
0.158936 0.711493 0.000000
0.199392 0.849352 0.000000
0.361277 0.959913 0.000000
1.000000 0.984266 0.000000
0.000000 0.439032 0.000000
0.016576 0.411481 0.000000
0.040087 0.361277 0.000000
0.056063 0.377325 0.000000
0.069238 0.414791 0.000000
0.078375 0.473237 0.000000
0.086622 0.548434 0.000000
0.094667 0.632362 0.000000
0.103634 0.726443 0.000000
0.131843 0.802047 0.000000
0.146138 0.921764 0.000000
0.411481 0.983424 0.000000
1.000000 0.992287 0.000000
0.000000 1.000000 0.000000
0.007713 1.000000 0.000000
0.015734 1.000000 0.000000
0.019889 1.000000 0.000000
0.024560 1.000000 0.000000
0.029831 1.000000 0.000000
0.037537 1.000000 0.000000
0.049445 1.000000 0.000000
0.065319 1.000000 0.000000
0.085147 1.000000 0.000000
0.111618 1.000000 0.000000
0.439032 1.000000 0.000000
1.000000 1.000000 0.000000
0.000000 0.000000 0.082500
0.560968 0.000000 0.082500
0.888382 0.000000 0.082500
0.914853 0.000000 0.082500
0.934681 0.000000 0.082500
0.950554 0.000000 0.082500
0.962463 0.000000 0.082500
0.970169 0.000000 0.082500
0.975440 0.000000 0.082500
0.980111 0.000000 0.082500
0.984266 0.000000 0.082500
0.992287 0.000000 0.082500
1.000000 0.000000 0.082500
0.000000 0.007713 0.082500
0.588520 0.016576 0.082500
0.853862 0.078236 0.082500
0.868157 0.197954 0.082500
0.896365 0.273558 0.082500
0.905333 0.367639 0.082500
0.913378 0.451567 0.082500
0.921625 0.526764 0.082500
0.930761 0.585211 0.082500
0.943937 0.622676 0.082500
0.959913 0.638724 0.082500
0.983424 0.588520 0.082500
1.000000 0.560968 0.082500
0.000000 0.015734 0.082500
0.638724 0.040088 0.082500
0.800608 0.150648 0.082500
0.841063 0.288508 0.082500
0.844605 0.455312 0.082500
0.846358 0.545966 0.082500
0.838165 0.624146 0.082500
0.816769 0.673213 0.082500
0.804234 0.711246 0.082500
0.812926 0.749729 0.082500
0.849352 0.800608 0.082500
0.921764 0.853862 0.082500
1.000000 0.888382 0.082500
0.000000 0.019889 0.082500
0.622676 0.056063 0.082500
0.749729 0.187074 0.082500
0.814412 0.345947 0.082500
0.761968 0.484942 0.082500
0.757835 0.570260 0.082500
0.710291 0.641817 0.082500
0.663403 0.706660 0.082500
0.645092 0.767399 0.082500
0.654053 0.814412 0.082500
0.711493 0.841064 0.082500
0.802046 0.868157 0.082500
1.000000 0.914853 0.082500
0.000000 0.024560 0.082500
0.585211 0.069239 0.082500
0.711246 0.195766 0.082500
0.767399 0.354908 0.082500
0.701749 0.478508 0.082500
0.665915 0.575727 0.082500
0.595631 0.622141 0.082500
0.556665 0.667854 0.082500
0.521492 0.701749 0.082500
0.515058 0.761968 0.082500
0.544688 0.844605 0.082500
0.726442 0.896365 0.082500
1.000000 0.934681 0.082500
0.000000 0.029831 0.082500
0.526764 0.078375 0.082500
0.673213 0.183231 0.082500
0.706660 0.336597 0.082500
0.667854 0.443335 0.082500
0.612186 0.523018 0.082500
0.542269 0.563749 0.082500
0.476982 0.612186 0.082500
0.424273 0.665915 0.082500
0.429740 0.757835 0.082500
0.454034 0.846358 0.082500
0.632362 0.905333 0.082500
1.000000 0.950554 0.082500
0.000000 0.037537 0.082500
0.451567 0.086622 0.082500
0.624146 0.161835 0.082500
0.641817 0.289709 0.082500
0.622141 0.404369 0.082500
0.563749 0.457731 0.082500
0.500000 0.500000 0.082500
0.436251 0.542269 0.082500
0.377859 0.595631 0.082500
0.358183 0.710291 0.082500
0.375854 0.838165 0.082500
0.548434 0.913378 0.082500
1.000000 0.962463 0.082500
0.000000 0.049445 0.082500
0.367639 0.094667 0.082500
0.545966 0.153642 0.082500
0.570260 0.242165 0.082500
0.575727 0.334085 0.082500
0.523018 0.387814 0.082500
0.457731 0.436251 0.082500
0.387814 0.476982 0.082500
0.332146 0.556665 0.082500
0.293340 0.663403 0.082500
0.326787 0.816769 0.082500
0.473237 0.921625 0.082500
1.000000 0.970169 0.082500
0.000000 0.065319 0.082500
0.273558 0.103635 0.082500
0.455312 0.155395 0.082500
0.484942 0.238032 0.082500
0.478508 0.298251 0.082500
0.443335 0.332146 0.082500
0.404369 0.377859 0.082500
0.334085 0.424273 0.082500
0.298251 0.521492 0.082500
0.232601 0.645092 0.082500
0.288753 0.804234 0.082500
0.414791 0.930762 0.082500
1.000000 0.975440 0.082500
0.000000 0.085147 0.082500
0.197954 0.131843 0.082500
0.288507 0.158936 0.082500
0.345947 0.185588 0.082500
0.354908 0.232601 0.082500
0.336597 0.293340 0.082500
0.289709 0.358183 0.082500
0.242165 0.429740 0.082500
0.238032 0.515058 0.082500
0.185588 0.654053 0.082500
0.250271 0.812925 0.082500
0.377325 0.943937 0.082500
1.000000 0.980111 0.082500
0.000000 0.111618 0.082500
0.078236 0.146138 0.082500
0.150648 0.199392 0.082500
0.187075 0.250271 0.082500
0.195766 0.288753 0.082500
0.183231 0.326787 0.082500
0.161835 0.375854 0.082500
0.153642 0.454034 0.082500
0.155395 0.544688 0.082500
0.158936 0.711493 0.082500
0.199392 0.849352 0.082500
0.361277 0.959913 0.082500
1.000000 0.984266 0.082500
0.000000 0.439032 0.082500
0.016576 0.411481 0.082500
0.040087 0.361277 0.082500
0.056063 0.377325 0.082500
0.069238 0.414791 0.082500
0.078375 0.473237 0.082500
0.086622 0.548434 0.082500
0.094667 0.632362 0.082500
0.103634 0.726443 0.082500
0.131843 0.802047 0.082500
0.146138 0.921764 0.082500
0.411481 0.983424 0.082500
1.000000 0.992287 0.082500
0.000000 1.000000 0.082500
0.007713 1.000000 0.082500
0.015734 1.000000 0.082500
0.019889 1.000000 0.082500
0.024560 1.000000 0.082500
0.029831 1.000000 0.082500
0.037537 1.000000 0.082500
0.049445 1.000000 0.082500
0.065319 1.000000 0.082500
0.085147 1.000000 0.082500
0.111618 1.000000 0.082500
0.439032 1.000000 0.082500
1.000000 1.000000 0.082500
0.000000 0.000000 0.165000
0.560968 0.000000 0.165000
0.888382 0.000000 0.165000
0.914853 0.000000 0.165000
0.934681 0.000000 0.165000
0.950554 0.000000 0.165000
0.962463 0.000000 0.165000
0.970169 0.000000 0.165000
0.975440 0.000000 0.165000
0.980111 0.000000 0.165000
0.984266 0.000000 0.165000
0.992287 0.000000 0.165000
1.000000 0.000000 0.165000
0.000000 0.007713 0.165000
0.588520 0.016576 0.165000
0.853862 0.078236 0.165000
0.868157 0.197954 0.165000
0.896365 0.273558 0.165000
0.905333 0.367639 0.165000
0.913378 0.451567 0.165000
0.921625 0.526764 0.165000
0.930761 0.585211 0.165000
0.943937 0.622676 0.165000
0.959913 0.638724 0.165000
0.983424 0.588520 0.165000
1.000000 0.560968 0.165000
0.000000 0.015734 0.165000
0.638724 0.040088 0.165000
0.800608 0.150648 0.165000
0.841063 0.288508 0.165000
0.844605 0.455312 0.165000
0.846358 0.545966 0.165000
0.838165 0.624146 0.165000
0.816769 0.673213 0.165000
0.804234 0.711246 0.165000
0.812926 0.749729 0.165000
0.849352 0.800608 0.165000
0.921764 0.853862 0.165000
1.000000 0.888382 0.165000
0.000000 0.019889 0.165000
0.622676 0.056063 0.165000
0.749729 0.187074 0.165000
0.814412 0.345947 0.165000
0.761968 0.484942 0.165000
0.757835 0.570260 0.165000
0.710291 0.641817 0.165000
0.663403 0.706660 0.165000
0.645092 0.767399 0.165000
0.654053 0.814412 0.165000
0.711493 0.841064 0.165000
0.802046 0.868157 0.165000
1.000000 0.914853 0.165000
0.000000 0.024560 0.165000
0.585211 0.069239 0.165000
0.711246 0.195766 0.165000
0.767399 0.354908 0.165000
0.701749 0.478508 0.165000
0.665915 0.575727 0.165000
0.595631 0.622141 0.165000
0.556665 0.667854 0.165000
0.521492 0.701749 0.165000
0.515058 0.761968 0.165000
0.544688 0.844605 0.165000
0.726442 0.896365 0.165000
1.000000 0.934681 0.165000
0.000000 0.029831 0.165000
0.526764 0.078375 0.165000
0.673213 0.183231 0.165000
0.706660 0.336597 0.165000
0.667854 0.443335 0.165000
0.612186 0.523018 0.165000
0.542269 0.563749 0.165000
0.476982 0.612186 0.165000
0.424273 0.665915 0.165000
0.429740 0.757835 0.165000
0.454034 0.846358 0.165000
0.632362 0.905333 0.165000
1.000000 0.950554 0.165000
0.000000 0.037537 0.165000
0.451567 0.086622 0.165000
0.624146 0.161835 0.165000
0.641817 0.289709 0.165000
0.622141 0.404369 0.165000
0.563749 0.457731 0.165000
0.500000 0.500000 0.165000
0.436251 0.542269 0.165000
0.377859 0.595631 0.165000
0.358183 0.710291 0.165000
0.375854 0.838165 0.165000
0.548434 0.913378 0.165000
1.000000 0.962463 0.165000
0.000000 0.049445 0.165000
0.367639 0.094667 0.165000
0.545966 0.153642 0.165000
0.570260 0.242165 0.165000
0.575727 0.334085 0.165000
0.523018 0.387814 0.165000
0.457731 0.436251 0.165000
0.387814 0.476982 0.165000
0.332146 0.556665 0.165000
0.293340 0.663403 0.165000
0.326787 0.816769 0.165000
0.473237 0.921625 0.165000
1.000000 0.970169 0.165000
0.000000 0.065319 0.165000
0.273558 0.103635 0.165000
0.455312 0.155395 0.165000
0.484942 0.238032 0.165000
0.478508 0.298251 0.165000
0.443335 0.332146 0.165000
0.404369 0.377859 0.165000
0.334085 0.424273 0.165000
0.298251 0.521492 0.165000
0.232601 0.645092 0.165000
0.288753 0.804234 0.165000
0.414791 0.930762 0.165000
1.000000 0.975440 0.165000
0.000000 0.085147 0.165000
0.197954 0.131843 0.165000
0.288507 0.158936 0.165000
0.345947 0.185588 0.165000
0.354908 0.232601 0.165000
0.336597 0.293340 0.165000
0.289709 0.358183 0.165000
0.242165 0.429740 0.165000
0.238032 0.515058 0.165000
0.185588 0.654053 0.165000
0.250271 0.812925 0.165000
0.377325 0.943937 0.165000
1.000000 0.980111 0.165000
0.000000 0.111618 0.165000
0.078236 0.146138 0.165000
0.150648 0.199392 0.165000
0.187075 0.250271 0.165000
0.195766 0.288753 0.165000
0.183231 0.326787 0.165000
0.161835 0.375854 0.165000
0.153642 0.454034 0.165000
0.155395 0.544688 0.165000
0.158936 0.711493 0.165000
0.199392 0.849352 0.165000
0.361277 0.959913 0.165000
1.000000 0.984266 0.165000
0.000000 0.439032 0.165000
0.016576 0.411481 0.165000
0.040087 0.361277 0.165000
0.056063 0.377325 0.165000
0.069238 0.414791 0.165000
0.078375 0.473237 0.165000
0.086622 0.548434 0.165000
0.094667 0.632362 0.165000
0.103634 0.726443 0.165000
0.131843 0.802047 0.165000
0.146138 0.921764 0.165000
0.411481 0.983424 0.165000
1.000000 0.992287 0.165000
0.000000 1.000000 0.165000
0.007713 1.000000 0.165000
0.015734 1.000000 0.165000
0.019889 1.000000 0.165000
0.024560 1.000000 0.165000
0.029831 1.000000 0.165000
0.037537 1.000000 0.165000
0.049445 1.000000 0.165000
0.065319 1.000000 0.165000
0.085147 1.000000 0.165000
0.111618 1.000000 0.165000
0.439032 1.000000 0.165000
1.000000 1.000000 0.165000
0.000000 0.000000 0.247500
0.560968 0.000000 0.247500
0.888382 0.000000 0.247500
0.914853 0.000000 0.247500
0.934681 0.000000 0.247500
0.950554 0.000000 0.247500
0.962463 0.000000 0.247500
0.970169 0.000000 0.247500
0.975440 0.000000 0.247500
0.980111 0.000000 0.247500
0.984266 0.000000 0.247500
0.992287 0.000000 0.247500
1.000000 0.000000 0.247500
0.000000 0.007713 0.247500
0.588520 0.016576 0.247500
0.853862 0.078236 0.247500
0.868157 0.197954 0.247500
0.896365 0.273558 0.247500
0.905333 0.367639 0.247500
0.913378 0.451567 0.247500
0.921625 0.526764 0.247500
0.930761 0.585211 0.247500
0.943937 0.622676 0.247500
0.959913 0.638724 0.247500
0.983424 0.588520 0.247500
1.000000 0.560968 0.247500
0.000000 0.015734 0.247500
0.638724 0.040088 0.247500
0.800608 0.150648 0.247500
0.841063 0.288508 0.247500
0.844605 0.455312 0.247500
0.846358 0.545966 0.247500
0.838165 0.624146 0.247500
0.816769 0.673213 0.247500
0.804234 0.711246 0.247500
0.812926 0.749729 0.247500
0.849352 0.800608 0.247500
0.921764 0.853862 0.247500
1.000000 0.888382 0.247500
0.000000 0.019889 0.247500
0.622676 0.056063 0.247500
0.749729 0.187074 0.247500
0.814412 0.345947 0.247500
0.761968 0.484942 0.247500
0.757835 0.570260 0.247500
0.710291 0.641817 0.247500
0.663403 0.706660 0.247500
0.645092 0.767399 0.247500
0.654053 0.814412 0.247500
0.711493 0.841064 0.247500
0.802046 0.868157 0.247500
1.000000 0.914853 0.247500
0.000000 0.024560 0.247500
0.585211 0.069239 0.247500
0.711246 0.195766 0.247500
0.767399 0.354908 0.247500
0.701749 0.478508 0.247500
0.665915 0.575727 0.247500
0.595631 0.622141 0.247500
0.556665 0.667854 0.247500
0.521492 0.701749 0.247500
0.515058 0.761968 0.247500
0.544688 0.844605 0.247500
0.726442 0.896365 0.247500
1.000000 0.934681 0.247500
0.000000 0.029831 0.247500
0.526764 0.078375 0.247500
0.673213 0.183231 0.247500
0.706660 0.336597 0.247500
0.667854 0.443335 0.247500
0.612186 0.523018 0.247500
0.542269 0.563749 0.247500
0.476982 0.612186 0.247500
0.424273 0.665915 0.247500
0.429740 0.757835 0.247500
0.454034 0.846358 0.247500
0.632362 0.905333 0.247500
1.000000 0.950554 0.247500
0.000000 0.037537 0.247500
0.451567 0.086622 0.247500
0.624146 0.161835 0.247500
0.641817 0.289709 0.247500
0.622141 0.404369 0.247500
0.563749 0.457731 0.247500
0.500000 0.500000 0.247500
0.436251 0.542269 0.247500
0.377859 0.595631 0.247500
0.358183 0.710291 0.247500
0.375854 0.838165 0.247500
0.548434 0.913378 0.247500
1.000000 0.962463 0.247500
0.000000 0.049445 0.247500
0.367639 0.094667 0.247500
0.545966 0.153642 0.247500
0.570260 0.242165 0.247500
0.575727 0.334085 0.247500
0.523018 0.387814 0.247500
0.457731 0.436251 0.247500
0.387814 0.476982 0.247500
0.332146 0.556665 0.247500
0.293340 0.663403 0.247500
0.326787 0.816769 0.247500
0.473237 0.921625 0.247500
1.000000 0.970169 0.247500
0.000000 0.065319 0.247500
0.273558 0.103635 0.247500
0.455312 0.155395 0.247500
0.484942 0.238032 0.247500
0.478508 0.298251 0.247500
0.443335 0.332146 0.247500
0.404369 0.377859 0.247500
0.334085 0.424273 0.247500
0.298251 0.521492 0.247500
0.232601 0.645092 0.247500
0.288753 0.804234 0.247500
0.414791 0.930762 0.247500
1.000000 0.975440 0.247500
0.000000 0.085147 0.247500
0.197954 0.131843 0.247500
0.288507 0.158936 0.247500
0.345947 0.185588 0.247500
0.354908 0.232601 0.247500
0.336597 0.293340 0.247500
0.289709 0.358183 0.247500
0.242165 0.429740 0.247500
0.238032 0.515058 0.247500
0.185588 0.654053 0.247500
0.250271 0.812925 0.247500
0.377325 0.943937 0.247500
1.000000 0.980111 0.247500
0.000000 0.111618 0.247500
0.078236 0.146138 0.247500
0.150648 0.199392 0.247500
0.187075 0.250271 0.247500
0.195766 0.288753 0.247500
0.183231 0.326787 0.247500
0.161835 0.375854 0.247500
0.153642 0.454034 0.247500
0.155395 0.544688 0.247500
0.158936 0.711493 0.247500
0.199392 0.849352 0.247500
0.361277 0.959913 0.247500
1.000000 0.984266 0.247500
0.000000 0.439032 0.247500
0.016576 0.411481 0.247500
0.040087 0.361277 0.247500
0.056063 0.377325 0.247500
0.069238 0.414791 0.247500
0.078375 0.473237 0.247500
0.086622 0.548434 0.247500
0.094667 0.632362 0.247500
0.103634 0.726443 0.247500
0.131843 0.802047 0.247500
0.146138 0.921764 0.247500
0.411481 0.983424 0.247500
1.000000 0.992287 0.247500
0.000000 1.000000 0.247500
0.007713 1.000000 0.247500
0.015734 1.000000 0.247500
0.019889 1.000000 0.247500
0.024560 1.000000 0.247500
0.029831 1.000000 0.247500
0.037537 1.000000 0.247500
0.049445 1.000000 0.247500
0.065319 1.000000 0.247500
0.085147 1.000000 0.247500
0.111618 1.000000 0.247500
0.439032 1.000000 0.247500
1.000000 1.000000 0.247500
0.000000 0.000000 0.330000
0.560968 0.000000 0.330000
0.888382 0.000000 0.330000
0.914853 0.000000 0.330000
0.934681 0.000000 0.330000
0.950554 0.000000 0.330000
0.962463 0.000000 0.330000
0.970169 0.000000 0.330000
0.975440 0.000000 0.330000
0.980111 0.000000 0.330000
0.984266 0.000000 0.330000
0.992287 0.000000 0.330000
1.000000 0.000000 0.330000
0.000000 0.007713 0.330000
0.588520 0.016576 0.330000
0.853862 0.078236 0.330000
0.868157 0.197954 0.330000
0.896365 0.273558 0.330000
0.905333 0.367639 0.330000
0.913378 0.451567 0.330000
0.921625 0.526764 0.330000
0.930761 0.585211 0.330000
0.943937 0.622676 0.330000
0.959913 0.638724 0.330000
0.983424 0.588520 0.330000
1.000000 0.560968 0.330000
0.000000 0.015734 0.330000
0.638724 0.040088 0.330000
0.800608 0.150648 0.330000
0.841063 0.288508 0.330000
0.844605 0.455312 0.330000
0.846358 0.545966 0.330000
0.838165 0.624146 0.330000
0.816769 0.673213 0.330000
0.804234 0.711246 0.330000
0.812926 0.749729 0.330000
0.849352 0.800608 0.330000
0.921764 0.853862 0.330000
1.000000 0.888382 0.330000
0.000000 0.019889 0.330000
0.622676 0.056063 0.330000
0.749729 0.187074 0.330000
0.814412 0.345947 0.330000
0.761968 0.484942 0.330000
0.757835 0.570260 0.330000
0.710291 0.641817 0.330000
0.663403 0.706660 0.330000
0.645092 0.767399 0.330000
0.654053 0.814412 0.330000
0.711493 0.841064 0.330000
0.802046 0.868157 0.330000
1.000000 0.914853 0.330000
0.000000 0.024560 0.330000
0.585211 0.069239 0.330000
0.711246 0.195766 0.330000
0.767399 0.354908 0.330000
0.701749 0.478508 0.330000
0.665915 0.575727 0.330000
0.595631 0.622141 0.330000
0.556665 0.667854 0.330000
0.521492 0.701749 0.330000
0.515058 0.761968 0.330000
0.544688 0.844605 0.330000