# vtk DataFile Version 2.0
Mesh for Fierro
ASCII 
DATASET UNSTRUCTURED_GRID

POINTS 845 float
0.000000 0.000000 0.000000
0.510296 0.000000 0.000000
0.910642 0.000000 0.000000
0.965081 0.000000 0.000000
0.975022 0.000000 0.000000
0.982463 0.000000 0.000000
0.988408 0.000000 0.000000
0.989135 0.000000 0.000000
0.987615 0.000000 0.000000
0.987339 0.000000 0.000000
0.987196 0.000000 0.000000
0.994743 0.000000 0.000000
1.000000 0.000000 0.000000
0.000000 0.005257 0.000000
0.601388 0.016236 0.000000
0.921687 0.116436 0.000000
0.886399 0.368752 0.000000
0.894142 0.456202 0.000000
0.889845 0.574320 0.000000
0.889899 0.671556 0.000000
0.895722 0.737238 0.000000
0.911009 0.754178 0.000000
0.930672 0.749675 0.000000
0.956445 0.707732 0.000000
0.983764 0.601388 0.000000
1.000000 0.510296 0.000000
0.000000 0.012804 0.000000
0.707732 0.043555 0.000000
0.882999 0.243875 0.000000
0.843469 0.533120 0.000000
0.823146 0.667323 0.000000
0.816427 0.747516 0.000000
0.786068 0.787550 0.000000
0.742181 0.785208 0.000000
0.724252 0.803640 0.000000
0.725451 0.837577 0.000000
0.756125 0.882999 0.000000
0.883564 0.921688 0.000000
1.000000 0.910642 0.000000
0.000000 0.012661 0.000000
0.749675 0.069328 0.000000
0.837577 0.274549 0.000000
0.819888 0.532875 0.000000
0.721465 0.639286 0.000000
0.687630 0.690448 0.000000
0.582087 0.714059 0.000000
0.500615 0.753994 0.000000
0.480469 0.788446 0.000000
0.467125 0.819888 0.000000
0.466880 0.843469 0.000000
0.631249 0.886399 0.000000
1.000000 0.965081 0.000000
0.000000 0.012385 0.000000
0.754177 0.088991 0.000000
0.803640 0.275749 0.000000
0.788445 0.519531 0.000000
0.659026 0.620447 0.000000
0.557868 0.656779 0.000000
0.472136 0.655990 0.000000
0.422693 0.649902 0.000000
0.379553 0.659026 0.000000
0.360714 0.721465 0.000000
0.332677 0.823146 0.000000
0.543799 0.894142 0.000000
1.000000 0.975023 0.000000
0.000000 0.010865 0.000000
0.737238 0.104278 0.000000
0.785208 0.257820 0.000000
0.753994 0.499385 0.000000
0.649902 0.577307 0.000000
0.554345 0.589883 0.000000
0.486598 0.574126 0.000000
0.410117 0.554345 0.000000
0.343221 0.557868 0.000000
0.309552 0.687631 0.000000
0.252484 0.816427 0.000000
0.425681 0.889845 0.000000
1.000000 0.982463 0.000000
0.000000 0.011592 0.000000
0.671556 0.110101 0.000000
0.787550 0.213932 0.000000
0.714059 0.417913 0.000000
0.655990 0.527864 0.000000
0.574126 0.513402 0.000000
0.500000 0.500000 0.000000
0.425874 0.486598 0.000000
0.344010 0.472136 0.000000
0.285941 0.582087 0.000000
0.212450 0.786068 0.000000
0.328445 0.889899 0.000000
1.000000 0.988408 0.000000
0.000000 0.017537 0.000000
0.574320 0.110155 0.000000
0.747516 0.183573 0.000000
0.690448 0.312369 0.000000
0.656779 0.442132 0.000000
0.589882 0.445655 0.000000
0.513402 0.425874 0.000000
0.445655 0.410118 0.000000
0.350098 0.422693 0.000000
0.246006 0.500615 0.000000
0.214793 0.742180 0.000000
0.262762 0.895723 0.000000
1.000000 0.989135 0.000000
0.000000 0.024978 0.000000
0.456202 0.105858 0.000000
0.667323 0.176854 0.000000
0.639286 0.278535 0.000000
0.620448 0.340974 0.000000
0.577307 0.350098 0.000000
0.527864 0.344010 0.000000
0.442132 0.343221 0.000000
0.340974 0.379552 0.000000
0.211555 0.480468 0.000000
0.196360 0.724251 0.000000
0.245823 0.911009 0.000000
1.000000 0.987615 0.000000
0.000000 0.034919 0.000000
0.368752 0.113601 0.000000
0.533120 0.156531 0.000000
0.532875 0.180112 0.000000
0.519532 0.211555 0.000000
0.499385 0.246006 0.000000
0.417913 0.285941 0.000000
0.312369 0.309552 0.000000
0.278535 0.360714 0.000000
0.180112 0.467125 0.000000
0.162423 0.725451 0.000000
0.250325 0.930672 0.000000
1.000000 0.987339 0.000000
0.000000 0.089358 0.000000
0.116436 0.078313 0.000000
0.243875 0.117001 0.000000
0.274549 0.162423 0.000000
0.275749 0.196360 0.000000
0.257820 0.214793 0.000000
0.213932 0.212450 0.000000
0.183573 0.252484 0.000000
0.176854 0.332677 0.000000
0.156531 0.466880 0.000000
0.117001 0.756125 0.000000
0.292267 0.956445 0.000000
1.000000 0.987196 0.000000
0.000000 0.489705 0.000000
0.016236 0.398613 0.000000
0.043555 0.292268 0.000000
0.069328 0.250326 0.000000
0.088991 0.245823 0.000000
0.104277 0.262763 0.000000
0.110101 0.328445 0.000000
0.110155 0.425682 0.000000
0.105858 0.543799 0.000000
0.113601 0.631249 0.000000
0.078312 0.883564 0.000000
0.398612 0.983764 0.000000
1.000000 0.994743 0.000000
0.000000 1.000000 0.000000
0.005257 1.000000 0.000000
0.012804 1.000000 0.000000
0.012661 1.000000 0.000000
0.012385 1.000000 0.000000
0.010865 1.000000 0.000000
0.011592 1.000000 0.000000
0.017537 1.000000 0.000000
0.024978 1.000000 0.000000
0.034919 1.000000 0.000000
0.089358 1.000000 0.000000
0.489705 1.000000 0.000000
1.000000 1.000000 0.000000
0.000000 0.000000 0.082500
0.510296 0.000000 0.082500
0.910642 0.000000 0.082500
0.965081 0.000000 0.082500
0.975022 0.000000 0.082500
0.982463 0.000000 0.082500
0.988408 0.000000 0.082500
0.989135 0.000000 0.082500
0.987615 0.000000 0.082500
0.987339 0.000000 0.082500
0.987196 0.000000 0.082500
0.994743 0.000000 0.082500
1.000000 0.000000 0.082500
0.000000 0.005257 0.082500
0.601388 0.016236 0.082500
0.921687 0.116436 0.082500
0.886399 0.368752 0.082500
0.894142 0.456202 0.082500
0.889845 0.574320 0.082500
0.889899 0.671556 0.082500
0.895722 0.737238 0.082500
0.911009 0.754178 0.082500
0.930672 0.749675 0.082500
0.956445 0.707732 0.082500
0.983764 0.601388 0.082500
1.000000 0.510296 0.082500
0.000000 0.012804 0.082500
0.707732 0.043555 0.082500
0.882999 0.243875 0.082500
0.843469 0.533120 0.082500
0.823146 0.667323 0.082500
0.816427 0.747516 0.082500
0.786068 0.787550 0.082500
0.742181 0.785208 0.082500
0.724252 0.803640 0.082500
0.725451 0.837577 0.082500
0.756125 0.882999 0.082500
0.883564 0.921688 0.082500
1.000000 0.910642 0.082500
0.000000 0.012661 0.082500
0.749675 0.069328 0.082500
0.837577 0.274549 0.082500
0.819888 0.532875 0.082500
0.721465 0.639286 0.082500
0.687630 0.690448 0.082500
0.582087 0.714059 0.082500
0.500615 0.753994 0.082500
0.480469 0.788446 0.082500
0.467125 0.819888 0.082500
0.466880 0.843469 0.082500
0.631249 0.886399 0.082500
1.000000 0.965081 0.082500
0.000000 0.012385 0.082500
0.754177 0.088991 0.082500
0.803640 0.275749 0.082500
0.788445 0.519531 0.082500
0.659026 0.620447 0.082500
0.557868 0.656779 0.082500
0.472136 0.655990 0.082500
0.422693 0.649902 0.082500
0.379553 0.659026 0.082500
0.360714 0.721465 0.082500
0.332677 0.823146 0.082500
0.543799 0.894142 0.082500
1.000000 0.975023 0.082500
0.000000 0.010865 0.082500
0.737238 0.104278 0.082500
0.785208 0.257820 0.082500
0.753994 0.499385 0.082500
0.649902 0.577307 0.082500
0.554345 0.589883 0.082500
0.486598 0.574126 0.082500
0.410117 0.554345 0.082500
0.343221 0.557868 0.082500
0.309552 0.687631 0.082500
0.252484 0.816427 0.082500
0.425681 0.889845 0.082500
1.000000 0.982463 0.082500
0.000000 0.011592 0.082500
0.671556 0.110101 0.082500
0.787550 0.213932 0.082500
0.714059 0.417913 0.082500
0.655990 0.527864 0.082500
0.574126 0.513402 0.082500
0.500000 0.500000 0.082500
0.425874 0.486598 0.082500
0.344010 0.472136 0.082500
0.285941 0.582087 0.082500
0.212450 0.786068 0.082500
0.328445 0.889899 0.082500
1.000000 0.988408 0.082500
0.000000 0.017537 0.082500
0.574320 0.110155 0.082500
0.747516 0.183573 0.082500
0.690448 0.312369 0.082500
0.656779 0.442132 0.082500
0.589882 0.445655 0.082500
0.513402 0.425874 0.082500
0.445655 0.410118 0.082500
0.350098 0.422693 0.082500
0.246006 0.500615 0.082500
0.214793 0.742180 0.082500
0.262762 0.895723 0.082500
1.000000 0.989135 0.082500
0.000000 0.024978 0.082500
0.456202 0.105858 0.082500
0.667323 0.176854 0.082500
0.639286 0.278535 0.082500
0.620448 0.340974 0.082500
0.577307 0.350098 0.082500
0.527864 0.344010 0.082500
0.442132 0.343221 0.082500
0.340974 0.379552 0.082500
0.211555 0.480468 0.082500
0.196360 0.724251 0.082500
0.245823 0.911009 0.082500
1.000000 0.987615 0.082500
0.000000 0.034919 0.082500
0.368752 0.113601 0.082500
0.533120 0.156531 0.082500
0.532875 0.180112 0.082500
0.519532 0.211555 0.082500
0.499385 0.246006 0.082500
0.417913 0.285941 0.082500
0.312369 0.309552 0.082500
0.278535 0.360714 0.082500
0.180112 0.467125 0.082500
0.162423 0.725451 0.082500
0.250325 0.930672 0.082500
1.000000 0.987339 0.082500
0.000000 0.089358 0.082500
0.116436 0.078313 0.082500
0.243875 0.117001 0.082500
0.274549 0.162423 0.082500
0.275749 0.196360 0.082500
0.257820 0.214793 0.082500
0.213932 0.212450 0.082500
0.183573 0.252484 0.082500
0.176854 0.332677 0.082500
0.156531 0.466880 0.082500
0.117001 0.756125 0.082500
0.292267 0.956445 0.082500
1.000000 0.987196 0.082500
0.000000 0.489705 0.082500
0.016236 0.398613 0.082500
0.043555 0.292268 0.082500
0.069328 0.250326 0.082500
0.088991 0.245823 0.082500
0.104277 0.262763 0.082500
0.110101 0.328445 0.082500
0.110155 0.425682 0.082500
0.105858 0.543799 0.082500
0.113601 0.631249 0.082500
0.078312 0.883564 0.082500
0.398612 0.983764 0.082500
1.000000 0.994743 0.082500
0.000000 1.000000 0.082500
0.005257 1.000000 0.082500
0.012804 1.000000 0.082500
0.012661 1.000000 0.082500
0.012385 1.000000 0.082500
0.010865 1.000000 0.082500
0.011592 1.000000 0.082500
0.017537 1.000000 0.082500
0.024978 1.000000 0.082500
0.034919 1.000000 0.082500
0.089358 1.000000 0.082500
0.489705 1.000000 0.082500
1.000000 1.000000 0.082500
0.000000 0.000000 0.165000
0.510296 0.000000 0.165000
0.910642 0.000000 0.165000
0.965081 0.000000 0.165000
0.975022 0.000000 0.165000
0.982463 0.000000 0.165000
0.988408 0.000000 0.165000
0.989135 0.000000 0.165000
0.987615 0.000000 0.165000
0.987339 0.000000 0.165000
0.987196 0.000000 0.165000
0.994743 0.000000 0.165000
1.000000 0.000000 0.165000
0.000000 0.005257 0.165000
0.601388 0.016236 0.165000
0.921687 0.116436 0.165000
0.886399 0.368752 0.165000
0.894142 0.456202 0.165000
0.889845 0.574320 0.165000
0.889899 0.671556 0.165000
0.895722 0.737238 0.165000
0.911009 0.754178 0.165000
0.930672 0.749675 0.165000
0.956445 0.707732 0.165000
0.983764 0.601388 0.165000
1.000000 0.510296 0.165000
0.000000 0.012804 0.165000
0.707732 0.043555 0.165000
[...]
POINT_DATA 845 
VECTORS pos float 
0.000000 0.000000 0.000000
0.510296 0.000000 0.000000
0.910642 0.000000 0.000000
0.965081 0.000000 0.000000
0.975022 0.000000 0.000000
0.982463 0.000000 0.000000
0.988408 0.000000 0.000000
0.989135 0.000000 0.000000
0.987615 0.000000 0.000000
0.987339 0.000000 0.000000
0.987196 0.000000 0.000000
0.994743 0.000000 0.000000
1.000000 0.000000 0.000000
0.000000 0.005257 0.000000
0.601388 0.016236 0.000000
0.921687 0.116436 0.000000
0.886399 0.368752 0.000000
0.894142 0.456202 0.000000
0.889845 0.574320 0.000000
0.889899 0.671556 0.000000
0.895722 0.737238 0.000000
0.911009 0.754178 0.000000
0.930672 0.749675 0.000000
0.956445 0.707732 0.000000
0.983764 0.601388 0.000000
1.000000 0.510296 0.000000
0.000000 0.012804 0.000000
0.707732 0.043555 0.000000
0.882999 0.243875 0.000000
0.843469 0.533120 0.000000
0.823146 0.667323 0.000000
0.816427 0.747516 0.000000
0.786068 0.787550 0.000000
0.742181 0.785208 0.000000
0.724252 0.803640 0.000000
0.725451 0.837577 0.000000
0.756125 0.882999 0.000000
0.883564 0.921688 0.000000
1.000000 0.910642 0.000000
0.000000 0.012661 0.000000
0.749675 0.069328 0.000000
0.837577 0.274549 0.000000
0.819888 0.532875 0.000000
0.721465 0.639286 0.000000
0.687630 0.690448 0.000000
0.582087 0.714059 0.000000
0.500615 0.753994 0.000000
0.480469 0.788446 0.000000
0.467125 0.819888 0.000000
0.466880 0.843469 0.000000
0.631249 0.886399 0.000000
1.000000 0.965081 0.000000
0.000000 0.012385 0.000000
0.754177 0.088991 0.000000
0.803640 0.275749 0.000000
0.788445 0.519531 0.000000
0.659026 0.620447 0.000000
0.557868 0.656779 0.000000
0.472136 0.655990 0.000000
0.422693 0.649902 0.000000
0.379553 0.659026 0.000000
0.360714 0.721465 0.000000
0.332677 0.823146 0.000000
0.543799 0.894142 0.000000
1.000000 0.975023 0.000000
0.000000 0.010865 0.000000
0.737238 0.104278 0.000000
0.785208 0.257820 0.000000
0.753994 0.499385 0.000000
0.649902 0.577307 0.000000
0.554345 0.589883 0.000000
0.486598 0.574126 0.000000
0.410117 0.554345 0.000000
0.343221 0.557868 0.000000
0.309552 0.687631 0.000000
0.252484 0.816427 0.000000
0.425681 0.889845 0.000000
1.000000 0.982463 0.000000
0.000000 0.011592 0.000000
0.671556 0.110101 0.000000
0.787550 0.213932 0.000000
0.714059 0.417913 0.000000
0.655990 0.527864 0.000000
0.574126 0.513402 0.000000
0.500000 0.500000 0.000000
0.425874 0.486598 0.000000
0.344010 0.472136 0.000000
0.285941 0.582087 0.000000
0.212450 0.786068 0.000000
0.328445 0.889899 0.000000
1.000000 0.988408 0.000000
0.000000 0.017537 0.000000
0.574320 0.110155 0.000000
0.747516 0.183573 0.000000
0.690448 0.312369 0.000000
0.656779 0.442132 0.000000
0.589882 0.445655 0.000000
0.513402 0.425874 0.000000
0.445655 0.410118 0.000000
0.350098 0.422693 0.000000
0.246006 0.500615 0.000000
0.214793 0.742180 0.000000
0.262762 0.895723 0.000000
1.000000 0.989135 0.000000
0.000000 0.024978 0.000000
0.456202 0.105858 0.000000
0.667323 0.176854 0.000000
0.639286 0.278535 0.000000
0.620448 0.340974 0.000000
0.577307 0.350098 0.000000
0.527864 0.344010 0.000000
0.442132 0.343221 0.000000
0.340974 0.379552 0.000000
0.211555 0.480468 0.000000
0.196360 0.724251 0.000000
0.245823 0.911009 0.000000
1.000000 0.987615 0.000000
0.000000 0.034919 0.000000
0.368752 0.113601 0.000000
0.533120 0.156531 0.000000
0.532875 0.180112 0.000000
0.519532 0.211555 0.000000
0.499385 0.246006 0.000000
0.417913 0.285941 0.000000
0.312369 0.309552 0.000000
0.278535 0.360714 0.000000
0.180112 0.467125 0.000000
0.162423 0.725451 0.000000
0.250325 0.930672 0.000000
1.000000 0.987339 0.000000
0.000000 0.089358 0.000000
0.116436 0.078313 0.000000
0.243875 0.117001 0.000000
0.274549 0.162423 0.000000
0.275749 0.196360 0.000000
0.257820 0.214793 0.000000
0.213932 0.212450 0.000000
0.183573 0.252484 0.000000
0.176854 0.332677 0.000000
0.156531 0.466880 0.000000
0.117001 0.756125 0.000000
0.292267 0.956445 0.000000
1.000000 0.987196 0.000000
0.000000 0.489705 0.000000
0.016236 0.398613 0.000000
0.043555 0.292268 0.000000
0.069328 0.250326 0.000000
0.088991 0.245823 0.000000
0.104277 0.262763 0.000000
0.110101 0.328445 0.000000
0.110155 0.425682 0.000000
0.105858 0.543799 0.000000
0.113601 0.631249 0.000000
0.078312 0.883564 0.000000
0.398612 0.983764 0.000000
1.000000 0.994743 0.000000
0.000000 1.000000 0.000000
0.005257 1.000000 0.000000
0.012804 1.000000 0.000000
0.012661 1.000000 0.000000
0.012385 1.000000 0.000000
0.010865 1.000000 0.000000
0.011592 1.000000 0.000000
0.017537 1.000000 0.000000
0.024978 1.000000 0.000000
0.034919 1.000000 0.000000
0.089358 1.000000 0.000000
0.489705 1.000000 0.000000
1.000000 1.000000 0.000000
0.000000 0.000000 0.082500
0.510296 0.000000 0.082500
0.910642 0.000000 0.082500
0.965081 0.000000 0.082500
0.975022 0.000000 0.082500
0.982463 0.000000 0.082500
0.988408 0.000000 0.082500
0.989135 0.000000 0.082500
0.987615 0.000000 0.082500
0.987339 0.000000 0.082500
0.987196 0.000000 0.082500
0.994743 0.000000 0.082500
1.000000 0.000000 0.082500
0.000000 0.005257 0.082500
0.601388 0.016236 0.082500
0.921687 0.116436 0.082500
0.886399 0.368752 0.082500
0.894142 0.456202 0.082500
0.889845 0.574320 0.082500
0.889899 0.671556 0.082500
0.895722 0.737238 0.082500
0.911009 0.754178 0.082500
0.930672 0.749675 0.082500
0.956445 0.707732 0.082500
0.983764 0.601388 0.082500
1.000000 0.510296 0.082500
0.000000 0.012804 0.082500
0.707732 0.043555 0.082500
0.882999 0.243875 0.082500
0.843469 0.533120 0.082500
0.823146 0.667323 0.082500
0.816427 0.747516 0.082500
0.786068 0.787550 0.082500
0.742181 0.785208 0.082500
0.724252 0.803640 0.082500
0.725451 0.837577 0.082500
0.756125 0.882999 0.082500
0.883564 0.921688 0.082500
1.000000 0.910642 0.082500
0.000000 0.012661 0.082500
0.749675 0.069328 0.082500
0.837577 0.274549 0.082500
0.819888 0.532875 0.082500
0.721465 0.639286 0.082500
0.687630 0.690448 0.082500
0.582087 0.714059 0.082500
0.500615 0.753994 0.082500
0.480469 0.788446 0.082500
0.467125 0.819888 0.082500
0.466880 0.843469 0.082500
0.631249 0.886399 0.082500
1.000000 0.965081 0.082500
0.000000 0.012385 0.082500
0.754177 0.088991 0.082500
0.803640 0.275749 0.082500
0.788445 0.519531 0.082500
0.659026 0.620447 0.082500
0.557868 0.656779 0.082500
0.472136 0.655990 0.082500
0.422693 0.649902 0.082500
0.379553 0.659026 0.082500
0.360714 0.721465 0.082500
0.332677 0.823146 0.082500
0.543799 0.894142 0.082500
1.000000 0.975023 0.082500
0.000000 0.010865 0.082500
0.737238 0.104278 0.082500
0.785208 0.257820 0.082500
0.753994 0.499385 0.082500
0.649902 0.577307 0.082500
0.554345 0.589883 0.082500
0.486598 0.574126 0.082500
0.410117 0.554345 0.082500
0.343221 0.557868 0.082500
0.309552 0.687631 0.082500
0.252484 0.816427 0.082500
0.425681 0.889845 0.082500
1.000000 0.982463 0.082500
0.000000 0.011592 0.082500
0.671556 0.110101 0.082500
0.787550 0.213932 0.082500
0.714059 0.417913 0.082500
0.655990 0.527864 0.082500
0.574126 0.513402 0.082500
0.500000 0.500000 0.082500
0.425874 0.486598 0.082500
0.344010 0.472136 0.082500
0.285941 0.582087 0.082500
0.212450 0.786068 0.082500
0.328445 0.889899 0.082500
1.000000 0.988408 0.082500
0.000000 0.017537 0.082500
0.574320 0.110155 0.082500
0.747516 0.183573 0.082500
0.690448 0.312369 0.082500
0.656779 0.442132 0.082500
0.589882 0.445655 0.082500
0.513402 0.425874 0.082500
0.445655 0.410118 0.082500
0.350098 0.422693 0.082500
0.246006 0.500615 0.082500
0.214793 0.742180 0.082500
0.262762 0.895723 0.082500
1.000000 0.989135 0.082500
0.000000 0.024978 0.082500
0.456202 0.105858 0.082500
0.667323 0.176854 0.082500
0.639286 0.278535 0.082500
0.620448 0.340974 0.082500
0.577307 0.350098 0.082500
0.527864 0.344010 0.082500
0.442132 0.343221 0.082500
0.340974 0.379552 0.082500
0.211555 0.480468 0.082500
0.196360 0.724251 0.082500
0.245823 0.911009 0.082500
1.000000 0.987615 0.082500
0.000000 0.034919 0.082500
0.368752 0.113601 0.082500
0.533120 0.156531 0.082500
0.532875 0.180112 0.082500
0.519532 0.211555 0.082500
0.499385 0.246006 0.082500
0.417913 0.285941 0.082500
0.312369 0.309552 0.082500
0.278535 0.360714 0.082500
0.180112 0.467125 0.082500
0.162423 0.725451 0.082500
0.250325 0.930672 0.082500
1.000000 0.987339 0.082500
0.000000 0.089358 0.082500
0.116436 0.078313 0.082500
0.243875 0.117001 0.082500
0.274549 0.162423 0.082500
0.275749 0.196360 0.082500
0.257820 0.214793 0.082500
0.213932 0.212450 0.082500
0.183573 0.252484 0.082500
0.176854 0.332677 0.082500
0.156531 0.466880 0.082500
0.117001 0.756125 0.082500
0.292267 0.956445 0.082500
1.000000 0.987196 0.082500
0.000000 0.489705 0.082500
0.016236 0.398613 0.082500
0.043555 0.292268 0.082500
0.069328 0.250326 0.082500
0.088991 0.245823 0.082500
0.104277 0.262763 0.082500
0.110101 0.328445 0.082500
0.110155 0.425682 0.082500
0.105858 0.543799 0.082500
0.113601 0.631249 0.082500
0.078312 0.883564 0.082500
0.398612 0.983764 0.082500
1.000000 0.994743 0.082500
0.000000 1.000000 0.082500
0.005257 1.000000 0.082500
0.012804 1.000000 0.082500
0.012661 1.000000 0.082500
0.012385 1.000000 0.082500
0.010865 1.000000 0.082500
0.011592 1.000000 0.082500
0.017537 1.000000 0.082500
0.024978 1.000000 0.082500
0.034919 1.000000 0.082500
0.089358 1.000000 0.082500
0.489705 1.000000 0.082500
1.000000 1.000000 0.082500
0.000000 0.000000 0.165000
0.510296 0.000000 0.165000
0.910642 0.000000 0.165000
0.965081 0.000000 0.165000
0.975022 0.000000 0.165000
0.982463 0.000000 0.165000
0.988408 0.000000 0.165000
0.989135 0.000000 0.165000
0.987615 0.000000 0.165000
0.987339 0.000000 0.165000
0.987196 0.000000 0.165000
0.994743 0.000000 0.165000
1.000000 0.000000 0.165000
0.000000 0.005257 0.165000
0.601388 0.016236 0.165000
0.921687 0.116436 0.165000
0.886399 0.368752 0.165000
0.894142 0.456202 0.165000
0.889845 0.574320 0.165000
0.889899 0.671556 0.165000
0.895722 0.737238 0.165000
0.911009 0.754178 0.165000
0.930672 0.749675 0.165000
0.956445 0.707732 0.165000
0.983764 0.601388 0.165000
1.000000 0.510296 0.165000
0.000000 0.012804 0.165000
0.707732 0.043555 0.165000
0.882999 0.243875 0.165000
0.843469 0.533120 0.165000
0.823146 0.667323 0.165000
0.816427 0.747516 0.165000
0.786068 0.787550 0.165000
0.742181 0.785208 0.165000
0.724252 0.803640 0.165000
0.725451 0.837577 0.165000
0.756125 0.882999 0.165000
0.883564 0.921688 0.165000
1.000000 0.910642 0.165000
0.000000 0.012661 0.165000
0.749675 0.069328 0.165000
0.837577 0.274549 0.165000
0.819888 0.532875 0.165000
0.721465 0.639286 0.165000
0.687630 0.690448 0.165000
0.582087 0.714059 0.165000
0.500615 0.753994 0.165000
0.480469 0.788446 0.165000
0.467125 0.819888 0.165000
0.466880 0.843469 0.165000
0.631249 0.886399 0.165000
1.000000 0.965081 0.165000
0.000000 0.012385 0.165000
0.754177 0.088991 0.165000
0.803640 0.275749 0.165000
0.788445 0.519531 0.165000
0.659026 0.620447 0.165000
0.557868 0.656779 0.165000
0.472136 0.655990 0.165000
0.422693 0.649902 0.165000
0.379553 0.659026 0.165000
0.360714 0.721465 0.165000
0.332677 0.823146 0.165000
0.543799 0.894142 0.165000
1.000000 0.975023 0.165000
0.000000 0.010865 0.165000
0.737238 0.104278 0.165000
0.785208 0.257820 0.165000
0.753994 0.499385 0.165000
0.649902 0.577307 0.165000
0.554345 0.589883 0.165000
0.486598 0.574126 0.165000
0.410117 0.554345 0.165000
0.343221 0.557868 0.165000
0.309552 0.687631 0.165000
0.252484 0.816427 0.165000
0.425681 0.889845 0.165000
1.000000 0.982463 0.165000
0.000000 0.011592 0.165000
0.671556 0.110101 0.165000
0.787550 0.213932 0.165000
0.714059 0.417913 0.165000
0.655990 0.527864 0.165000
0.574126 0.513402 0.165000
0.500000 0.500000 0.165000
0.425874 0.486598 0.165000
0.344010 0.472136 0.165000
0.285941 0.582087 0.165000
0.212450 0.786068 0.165000
0.328445 0.889899 0.165000
1.000000 0.988408 0.165000
0.000000 0.017537 0.165000
0.574320 0.110155 0.165000
0.747516 0.183573 0.165000
0.690448 0.312369 0.165000
0.656779 0.442132 0.165000
0.589882 0.445655 0.165000
0.513402 0.425874 0.165000
0.445655 0.410118 0.165000
0.350098 0.422693 0.165000
0.246006 0.500615 0.165000
0.214793 0.742180 0.165000
0.262762 0.895723 0.165000
1.000000 0.989135 0.165000
0.000000 0.024978 0.165000
0.456202 0.105858 0.165000
0.667323 0.176854 0.165000
0.639286 0.278535 0.165000
0.620448 0.340974 0.165000
0.577307 0.350098 0.165000
0.527864 0.344010 0.165000
0.442132 0.343221 0.165000
0.340974 0.379552 0.165000
0.211555 0.480468 0.165000
0.196360 0.724251 0.165000
0.245823 0.911009 0.165000
1.000000 0.987615 0.165000
0.000000 0.034919 0.165000
0.368752 0.113601 0.165000
0.533120 0.156531 0.165000
0.532875 0.180112 0.165000
0.519532 0.211555 0.165000
0.499385 0.246006 0.165000
0.417913 0.285941 0.165000
0.312369 0.309552 0.165000
0.278535 0.360714 0.165000
0.180112 0.467125 0.165000
0.162423 0.725451 0.165000
0.250325 0.930672 0.165000
1.000000 0.987339 0.165000
0.000000 0.089358 0.165000
0.116436 0.078313 0.165000
0.243875 0.117001 0.165000
0.274549 0.162423 0.165000
0.275749 0.196360 0.165000
0.257820 0.214793 0.165000
0.213932 0.212450 0.165000
0.183573 0.252484 0.165000
0.176854 0.332677 0.165000
0.156531 0.466880 0.165000
0.117001 0.756125 0.165000
0.292267 0.956445 0.165000
1.000000 0.987196 0.165000
0.000000 0.489705 0.165000
0.016236 0.398613 0.165000
0.043555 0.292268 0.165000
0.069328 0.250326 0.165000
0.088991 0.245823 0.165000
0.104277 0.262763 0.165000
0.110101 0.328445 0.165000
0.110155 0.425682 0.165000
0.105858 0.543799 0.165000
0.113601 0.631249 0.165000
0.078312 0.883564 0.165000
0.398612 0.983764 0.165000
1.000000 0.994743 0.165000
0.000000 1.000000 0.165000
0.005257 1.000000 0.165000
0.012804 1.000000 0.165000
0.012661 1.000000 0.165000
0.012385 1.000000 0.165000
0.010865 1.000000 0.165000
0.011592 1.000000 0.165000
0.017537 1.000000 0.165000
0.024978 1.000000 0.165000
0.034919 1.000000 0.165000
0.089358 1.000000 0.165000
0.489705 1.000000 0.165000
1.000000 1.000000 0.165000
0.000000 0.000000 0.247500
0.510296 0.000000 0.247500
0.910642 0.000000 0.247500
0.965081 0.000000 0.247500
0.975022 0.000000 0.247500
0.982463 0.000000 0.247500
0.988408 0.000000 0.247500
0.989135 0.000000 0.247500
0.987615 0.000000 0.247500
0.987339 0.000000 0.247500
0.987196 0.000000 0.247500
0.994743 0.000000 0.247500
1.000000 0.000000 0.247500
0.000000 0.005257 0.247500
0.601388 0.016236 0.247500
0.921687 0.116436 0.247500
0.886399 0.368752 0.247500
0.894142 0.456202 0.247500
0.889845 0.574320 0.247500
0.889899 0.671556 0.247500
0.895722 0.737238 0.247500
0.911009 0.754178 0.247500
0.930672 0.749675 0.247500
0.956445 0.707732 0.247500
0.983764 0.601388 0.247500
1.000000 0.510296 0.247500
0.000000 0.012804 0.247500
0.707732 0.043555 0.247500
0.882999 0.243875 0.247500
0.843469 0.533120 0.247500
0.823146 0.667323 0.247500
0.816427 0.747516 0.247500
0.786068 0.787550 0.247500
0.742181 0.785208 0.247500
0.724252 0.803640 0.247500
0.725451 0.837577 0.247500
0.756125 0.882999 0.247500
0.883564 0.921688 0.247500
1.000000 0.910642 0.247500
0.000000 0.012661 0.247500
0.749675 0.069328 0.247500
0.837577 0.274549 0.247500
0.819888 0.532875 0.247500
0.721465 0.639286 0.247500
0.687630 0.690448 0.247500
0.582087 0.714059 0.247500
0.500615 0.753994 0.247500
0.480469 0.788446 0.247500
0.467125 0.819888 0.247500
0.466880 0.843469 0.247500
0.631249 0.886399 0.247500
1.000000 0.965081 0.247500
0.000000 0.012385 0.247500
0.754177 0.088991 0.247500
0.803640 0.275749 0.247500
0.788445 0.519531 0.247500
0.659026 0.620447 0.247500
0.557868 0.656779 0.247500
0.472136 0.655990 0.247500
0.422693 0.649902 0.247500
0.379553 0.659026 0.247500
0.360714 0.721465 0.247500
0.332677 0.823146 0.247500
0.543799 0.894142 0.247500
1.000000 0.975023 0.247500
0.000000 0.010865 0.247500
0.737238 0.104278 0.247500
0.785208 0.257820 0.247500
0.753994 0.499385 0.247500
0.649902 0.577307 0.247500
0.554345 0.589883 0.247500
0.486598 0.574126 0.247500
0.410117 0.554345 0.247500
0.343221 0.557868 0.247500
0.309552 0.687631 0.247500
0.252484 0.816427 0.247500
0.425681 0.889845 0.247500
1.000000 0.982463 0.247500
0.000000 0.011592 0.247500
0.671556 0.110101 0.247500
0.787550 0.213932 0.247500
0.714059 0.417913 0.247500
0.655990 0.527864 0.247500
0.574126 0.513402 0.247500
0.500000 0.500000 0.247500
0.425874 0.486598 0.247500
0.344010 0.472136 0.247500
0.285941 0.582087 0.247500
0.212450 0.786068 0.247500
0.328445 0.889899 0.247500
1.000000 0.988408 0.247500
0.000000 0.017537 0.247500
0.574320 0.110155 0.247500
0.747516 0.183573 0.247500
0.690448 0.312369 0.247500
0.656779 0.442132 0.247500
0.589882 0.445655 0.247500
0.513402 0.425874 0.247500
0.445655 0.410118 0.247500
0.350098 0.422693 0.247500
0.246006 0.500615 0.247500
0.214793 0.742180 0.247500
0.262762 0.895723 0.247500
1.000000 0.989135 0.247500
0.000000 0.024978 0.247500
0.456202 0.105858 0.247500
0.667323 0.176854 0.247500
0.639286 0.278535 0.247500
0.620448 0.340974 0.247500
0.577307 0.350098 0.247500
0.527864 0.344010 0.247500
0.442132 0.343221 0.247500
0.340974 0.379552 0.247500
0.211555 0.480468 0.247500
0.196360 0.724251 0.247500
0.245823 0.911009 0.247500
1.000000 0.987615 0.247500
0.000000 0.034919 0.247500
0.368752 0.113601 0.247500
0.533120 0.156531 0.247500
0.532875 0.180112 0.247500
0.519532 0.211555 0.247500
0.499385 0.246006 0.247500
0.417913 0.285941 0.247500
0.312369 0.309552 0.247500
0.278535 0.360714 0.247500
0.180112 0.467125 0.247500
0.162423 0.725451 0.247500
0.250325 0.930672 0.247500
1.000000 0.987339 0.247500
0.000000 0.089358 0.247500
0.116436 0.078313 0.247500
0.243875 0.117001 0.247500
0.274549 0.162423 0.247500
0.275749 0.196360 0.247500
0.257820 0.214793 0.247500
0.213932 0.212450 0.247500
0.183573 0.252484 0.247500
0.176854 0.332677 0.247500
0.156531 0.466880 0.247500
0.117001 0.756125 0.247500
0.292267 0.956445 0.247500
1.000000 0.987196 0.247500
0.000000 0.489705 0.247500
0.016236 0.398613 0.247500
0.043555 0.292268 0.247500
0.069328 0.250326 0.247500
0.088991 0.245823 0.247500
0.104277 0.262763 0.247500
0.110101 0.328445 0.247500
0.110155 0.425682 0.247500
0.105858 0.543799 0.247500
0.113601 0.631249 0.247500
0.078312 0.883564 0.247500
0.398612 0.983764 0.247500
1.000000 0.994743 0.247500
0.000000 1.000000 0.247500
0.005257 1.000000 0.247500
0.012804 1.000000 0.247500
0.012661 1.000000 0.247500
0.012385 1.000000 0.247500
0.010865 1.000000 0.247500
0.011592 1.000000 0.247500
0.017537 1.000000 0.247500
0.024978 1.000000 0.247500
0.034919 1.000000 0.247500
0.089358 1.000000 0.247500
0.489705 1.000000 0.247500
1.000000 1.000000 0.247500
0.000000 0.000000 0.330000
0.510296 0.000000 0.330000
0.910642 0.000000 0.330000
0.965081 0.000000 0.330000
0.975022 0.000000 0.330000
0.982463 0.000000 0.330000
0.988408 0.000000 0.330000
0.989135 0.000000 0.330000
0.987615 0.000000 0.330000
0.987339 0.000000 0.330000
0.987196 0.000000 0.330000
0.994743 0.000000 0.330000
1.000000 0.000000 0.330000
0.000000 0.005257 0.330000
0.601388 0.016236 0.330000
0.921687 0.116436 0.330000
0.886399 0.368752 0.330000
0.894142 0.456202 0.330000
0.889845 0.574320 0.330000
0.889899 0.671556 0.330000
0.895722 0.737238 0.330000
0.911009 0.754178 0.330000
0.930672 0.749675 0.330000
0.956445 0.707732 0.330000
0.983764 0.601388 0.330000
1.000000 0.510296 0.330000
0.000000 0.012804 0.330000
0.707732 0.043555 0.330000
0.882999 0.243875 0.330000
0.843469 0.533120 0.330000
0.823146 0.667323 0.330000
0.816427 0.747516 0.330000
0.786068 0.787550 0.330000
0.742181 0.785208 0.330000
0.724252 0.803640 0.330000
0.725451 0.837577 0.330000
0.756125 0.882999 0.330000
0.883564 0.921688 0.330000
1.000000 0.910642 0.330000
0.000000 0.012661 0.330000
0.749675 0.069328 0.330000
0.837577 0.274549 0.330000
0.819888 0.532875 0.330000
0.721465 0.639286 0.330000
0.687630 0.690448 0.330000
0.582087 0.714059 0.330000
0.500615 0.753994 0.330000
0.480469 0.788446 0.330000
0.467125 0.819888 0.330000
0.466880 0.843469 0.330000
0.631249 0.886399 0.330000
1.000000 0.965081 0.330000
0.000000 0.012385 0.330000
0.754177 0.088991 0.330000
0.803640 0.275749 0.330000
0.788445 0.519531 0.330000
0.659026 0.620447 0.330000
0.557868 0.656779 0.330000
0.472136 0.655990 0.330000
0.422693 0.649902 0.330000
0.379553 0.659026 0.330000
0.360714 0.721465 0.330000
0.332677 0.823146 0.330000