# vtk DataFile Version 2.0
Mesh for Fierro
ASCII 
DATASET UNSTRUCTURED_GRID

POINTS 845 float
0.000000 0.000000 0.000000
0.509447 0.000000 0.000000
0.907267 0.000000 0.000000
0.962594 0.000000 0.000000
0.972125 0.000000 0.000000
0.980043 0.000000 0.000000
0.986201 0.000000 0.000000
0.988284 0.000000 0.000000
0.987271 0.000000 0.000000
0.987018 0.000000 0.000000
0.986607 0.000000 0.000000
0.994341 0.000000 0.000000
1.000000 0.000000 0.000000
0.000000 0.005659 0.000000
0.601435 0.016518 0.000000
0.920108 0.114584 0.000000
0.885908 0.357663 0.000000
0.895784 0.441222 0.000000
0.892150 0.559635 0.000000
0.893015 0.656872 0.000000
0.897993 0.727690 0.000000
0.911700 0.751784 0.000000
0.930876 0.749362 0.000000
0.955785 0.713044 0.000000
0.983482 0.601436 0.000000
1.000000 0.509447 0.000000
0.000000 0.013393 0.000000
0.713044 0.044215 0.000000
0.877391 0.236843 0.000000
0.845504 0.511853 0.000000
0.827162 0.650374 0.000000
0.821726 0.735078 0.000000
0.793481 0.776236 0.000000
0.754649 0.779369 0.000000
0.736364 0.796329 0.000000
0.737015 0.831005 0.000000
0.763157 0.877391 0.000000
0.885416 0.920108 0.000000
1.000000 0.907267 0.000000
0.000000 0.012982 0.000000
0.749361 0.069124 0.000000
0.831005 0.262985 0.000000
0.820890 0.518580 0.000000
0.726574 0.632497 0.000000
0.694361 0.683171 0.000000
0.593728 0.711323 0.000000
0.510927 0.753109 0.000000
0.491353 0.790156 0.000000
0.481420 0.820890 0.000000
0.488147 0.845504 0.000000
0.642337 0.885909 0.000000
1.000000 0.962594 0.000000
0.000000 0.012729 0.000000
0.751784 0.088300 0.000000
0.796329 0.263637 0.000000
0.790156 0.508647 0.000000
0.665320 0.610040 0.000000
0.569625 0.652380 0.000000
0.484478 0.656150 0.000000
0.435786 0.655278 0.000000
0.389960 0.665320 0.000000
0.367503 0.726574 0.000000
0.349626 0.827162 0.000000
0.558779 0.895784 0.000000
1.000000 0.972125 0.000000
0.000000 0.011716 0.000000
0.727690 0.102007 0.000000
0.779369 0.245351 0.000000
0.753109 0.489073 0.000000
0.655278 0.564214 0.000000
0.561008 0.587200 0.000000
0.491957 0.574748 0.000000
0.412800 0.561008 0.000000
0.347620 0.569625 0.000000
0.316829 0.694361 0.000000
0.264923 0.821726 0.000000
0.440366 0.892151 0.000000
1.000000 0.980043 0.000000
0.000000 0.013799 0.000000
0.656872 0.106985 0.000000
0.776236 0.206519 0.000000
0.711323 0.406272 0.000000
0.656150 0.515522 0.000000
0.574748 0.508043 0.000000
0.500000 0.500000 0.000000
0.425252 0.491957 0.000000
0.343850 0.484478 0.000000
0.288677 0.593729 0.000000
0.223765 0.793481 0.000000
0.343130 0.893015 0.000000
1.000000 0.986202 0.000000
0.000000 0.019957 0.000000
0.559635 0.107850 0.000000
0.735078 0.178274 0.000000
0.683171 0.305639 0.000000
0.652380 0.430375 0.000000
0.587200 0.438992 0.000000
0.508043 0.425252 0.000000
0.438992 0.412800 0.000000
0.344722 0.435786 0.000000
0.246891 0.510926 0.000000
0.220631 0.754649 0.000000
0.272311 0.897993 0.000000
1.000000 0.988284 0.000000
0.000000 0.027875 0.000000
0.441222 0.104216 0.000000
0.650374 0.172838 0.000000
0.632497 0.273426 0.000000
0.610040 0.334680 0.000000
0.564214 0.344722 0.000000
0.515522 0.343850 0.000000
0.430375 0.347620 0.000000
0.334680 0.389960 0.000000
0.209844 0.491353 0.000000
0.203671 0.736363 0.000000
0.248217 0.911700 0.000000
1.000000 0.987271 0.000000
0.000000 0.037406 0.000000
0.357664 0.114092 0.000000
0.511853 0.154496 0.000000
0.518580 0.179110 0.000000
0.508647 0.209844 0.000000
0.489074 0.246891 0.000000
0.406271 0.288677 0.000000
0.305639 0.316828 0.000000
0.273426 0.367503 0.000000
0.179110 0.481420 0.000000
0.168995 0.737015 0.000000
0.250639 0.930876 0.000000
1.000000 0.987018 0.000000
0.000000 0.092734 0.000000
0.114584 0.079892 0.000000
0.236843 0.122610 0.000000
0.262985 0.168995 0.000000
0.263637 0.203671 0.000000
0.245351 0.220631 0.000000
0.206519 0.223764 0.000000
0.178274 0.264922 0.000000
0.172837 0.349626 0.000000
0.154496 0.488147 0.000000
0.122610 0.763157 0.000000
0.286956 0.955785 0.000000
1.000000 0.986607 0.000000
0.000000 0.490554 0.000000
0.016518 0.398565 0.000000
0.044215 0.286956 0.000000
0.069124 0.250639 0.000000
0.088300 0.248217 0.000000
0.102007 0.272311 0.000000
0.106985 0.343130 0.000000
0.107849 0.440367 0.000000
0.104216 0.558779 0.000000
0.114091 0.642337 0.000000
0.079892 0.885416 0.000000
0.398565 0.983482 0.000000
1.000000 0.994341 0.000000
0.000000 1.000000 0.000000
0.005659 1.000000 0.000000
0.013393 1.000000 0.000000
0.012982 1.000000 0.000000
0.012729 1.000000 0.000000
0.011716 1.000000 0.000000
0.013799 1.000000 0.000000
0.019957 1.000000 0.000000
0.027875 1.000000 0.000000
0.037406 1.000000 0.000000
0.092733 1.000000 0.000000
0.490554 1.000000 0.000000
1.000000 1.000000 0.000000
0.000000 0.000000 0.082500
0.509447 0.000000 0.082500
0.907267 0.000000 0.082500
0.962594 0.000000 0.082500
0.972125 0.000000 0.082500
0.980043 0.000000 0.082500
0.986201 0.000000 0.082500
0.988284 0.000000 0.082500
0.987271 0.000000 0.082500
0.987018 0.000000 0.082500
0.986607 0.000000 0.082500
0.994341 0.000000 0.082500
1.000000 0.000000 0.082500
0.000000 0.005659 0.082500
0.601435 0.016518 0.082500
0.920108 0.114584 0.082500
0.885908 0.357663 0.082500
0.895784 0.441222 0.082500
0.892150 0.559635 0.082500
0.893015 0.656872 0.082500
0.897993 0.727690 0.082500
0.911700 0.751784 0.082500
0.930876 0.749362 0.082500
0.955785 0.713044 0.082500
0.983482 0.601436 0.082500
1.000000 0.509447 0.082500
0.000000 0.013393 0.082500
0.713044 0.044215 0.082500
0.877391 0.236843 0.082500
0.845504 0.511853 0.082500
0.827162 0.650374 0.082500
0.821726 0.735078 0.082500
0.793481 0.776236 0.082500
0.754649 0.779369 0.082500
0.736364 0.796329 0.082500
0.737015 0.831005 0.082500
0.763157 0.877391 0.082500
0.885416 0.920108 0.082500
1.000000 0.907267 0.082500
0.000000 0.012982 0.082500
0.749361 0.069124 0.082500
0.831005 0.262985 0.082500
0.820890 0.518580 0.082500
0.726574 0.632497 0.082500
0.694361 0.683171 0.082500
0.593728 0.711323 0.082500
0.510927 0.753109 0.082500
0.491353 0.790156 0.082500
0.481420 0.820890 0.082500
0.488147 0.845504 0.082500
0.642337 0.885909 0.082500
1.000000 0.962594 0.082500
0.000000 0.012729 0.082500
0.751784 0.088300 0.082500
0.796329 0.263637 0.082500
0.790156 0.508647 0.082500
0.665320 0.610040 0.082500
0.569625 0.652380 0.082500
0.484478 0.656150 0.082500
0.435786 0.655278 0.082500
0.389960 0.665320 0.082500
0.367503 0.726574 0.082500
0.349626 0.827162 0.082500
0.558779 0.895784 0.082500
1.000000 0.972125 0.082500
0.000000 0.011716 0.082500
0.727690 0.102007 0.082500
0.779369 0.245351 0.082500
0.753109 0.489073 0.082500
0.655278 0.564214 0.082500
0.561008 0.587200 0.082500
0.491957 0.574748 0.082500
0.412800 0.561008 0.082500
0.347620 0.569625 0.082500
0.316829 0.694361 0.082500
0.264923 0.821726 0.082500
0.440366 0.892151 0.082500
1.000000 0.980043 0.082500
0.000000 0.013799 0.082500
0.656872 0.106985 0.082500
0.776236 0.206519 0.082500
0.711323 0.406272 0.082500
0.656150 0.515522 0.082500
0.574748 0.508043 0.082500
0.500000 0.500000 0.082500
0.425252 0.491957 0.082500
0.343850 0.484478 0.082500
0.288677 0.593729 0.082500
0.223765 0.793481 0.082500
0.343130 0.893015 0.082500
1.000000 0.986202 0.082500
0.000000 0.019957 0.082500
0.559635 0.107850 0.082500
0.735078 0.178274 0.082500
0.683171 0.305639 0.082500
0.652380 0.430375 0.082500
0.587200 0.438992 0.082500
0.508043 0.425252 0.082500
0.438992 0.412800 0.082500
0.344722 0.435786 0.082500
0.246891 0.510926 0.082500
0.220631 0.754649 0.082500
0.272311 0.897993 0.082500
1.000000 0.988284 0.082500
0.000000 0.027875 0.082500
0.441222 0.104216 0.082500
0.650374 0.172838 0.082500
0.632497 0.273426 0.082500
0.610040 0.334680 0.082500
0.564214 0.344722 0.082500
0.515522 0.343850 0.082500
0.430375 0.347620 0.082500
0.334680 0.389960 0.082500
0.209844 0.491353 0.082500
0.203671 0.736363 0.082500
0.248217 0.911700 0.082500
1.000000 0.987271 0.082500
0.000000 0.037406 0.082500
0.357664 0.114092 0.082500
0.511853 0.154496 0.082500
0.518580 0.179110 0.082500
0.508647 0.209844 0.082500
0.489074 0.246891 0.082500
0.406271 0.288677 0.082500
0.305639 0.316828 0.082500
0.273426 0.367503 0.082500
0.179110 0.481420 0.082500
0.168995 0.737015 0.082500
0.250639 0.930876 0.082500
1.000000 0.987018 0.082500
0.000000 0.092734 0.082500
0.114584 0.079892 0.082500
0.236843 0.122610 0.082500
0.262985 0.168995 0.082500
0.263637 0.203671 0.082500
0.245351 0.220631 0.082500
0.206519 0.223764 0.082500
0.178274 0.264922 0.082500
0.172837 0.349626 0.082500
0.154496 0.488147 0.082500
0.122610 0.763157 0.082500
0.286956 0.955785 0.082500
1.000000 0.986607 0.082500
0.000000 0.490554 0.082500
0.016518 0.398565 0.082500
0.044215 0.286956 0.082500
0.069124 0.250639 0.082500
0.088300 0.248217 0.082500
0.102007 0.272311 0.082500
0.106985 0.343130 0.082500
0.107849 0.440367 0.082500
0.104216 0.558779 0.082500
0.114091 0.642337 0.082500
0.079892 0.885416 0.082500
0.398565 0.983482 0.082500
1.000000 0.994341 0.082500
0.000000 1.000000 0.082500
0.005659 1.000000 0.082500
0.013393 1.000000 0.082500
0.012982 1.000000 0.082500
0.012729 1.000000 0.082500
0.011716 1.000000 0.082500
0.013799 1.000000 0.082500
0.019957 1.000000 0.082500
0.027875 1.000000 0.082500
0.037406 1.000000 0.082500
0.092733 1.000000 0.082500
0.490554 1.000000 0.082500
1.000000 1.000000 0.082500
0.000000 0.000000 0.165000
0.509447 0.000000 0.165000
0.907267 0.000000 0.165000
0.962594 0.000000 0.165000
0.972125 0.000000 0.165000
0.980043 0.000000 0.165000
0.986201 0.000000 0.165000
0.988284 0.000000 0.165000
0.987271 0.000000 0.165000
0.987018 0.000000 0.165000
0.986607 0.000000 0.165000
0.994341 0.000000 0.165000
1.000000 0.000000 0.165000
0.000000 0.005659 0.165000
0.601435 0.016518 0.165000
0.920108 0.114584 0.165000
0.885908 0.357663 0.165000
0.895784 0.441222 0.165000
0.892150 0.559635 0.165000
0.893015 0.656872 0.165000
0.897993 0.727690 0.165000
0.911700 0.751784 0.165000
0.930876 0.749362 0.165000
0.955785 0.713044 0.165000
0.983482 0.601436 0.165000
1.000000 0.509447 0.165000
0.000000 0.013393 0.165000
0.713044 0.044215 0.165000
[...]
POINT_DATA 845 
VECTORS pos float 
0.000000 0.000000 0.000000
0.509447 0.000000 0.000000
0.907267 0.000000 0.000000
0.962594 0.000000 0.000000
0.972125 0.000000 0.000000
0.980043 0.000000 0.000000
0.986201 0.000000 0.000000
0.988284 0.000000 0.000000
0.987271 0.000000 0.000000
0.987018 0.000000 0.000000
0.986607 0.000000 0.000000
0.994341 0.000000 0.000000
1.000000 0.000000 0.000000
0.000000 0.005659 0.000000
0.601435 0.016518 0.000000
0.920108 0.114584 0.000000
0.885908 0.357663 0.000000
0.895784 0.441222 0.000000
0.892150 0.559635 0.000000
0.893015 0.656872 0.000000
0.897993 0.727690 0.000000
0.911700 0.751784 0.000000
0.930876 0.749362 0.000000
0.955785 0.713044 0.000000
0.983482 0.601436 0.000000
1.000000 0.509447 0.000000
0.000000 0.013393 0.000000
0.713044 0.044215 0.000000
0.877391 0.236843 0.000000
0.845504 0.511853 0.000000
0.827162 0.650374 0.000000
0.821726 0.735078 0.000000
0.793481 0.776236 0.000000
0.754649 0.779369 0.000000
0.736364 0.796329 0.000000
0.737015 0.831005 0.000000
0.763157 0.877391 0.000000
0.885416 0.920108 0.000000
1.000000 0.907267 0.000000
0.000000 0.012982 0.000000
0.749361 0.069124 0.000000
0.831005 0.262985 0.000000
0.820890 0.518580 0.000000
0.726574 0.632497 0.000000
0.694361 0.683171 0.000000
0.593728 0.711323 0.000000
0.510927 0.753109 0.000000
0.491353 0.790156 0.000000
0.481420 0.820890 0.000000
0.488147 0.845504 0.000000
0.642337 0.885909 0.000000
1.000000 0.962594 0.000000
0.000000 0.012729 0.000000
0.751784 0.088300 0.000000
0.796329 0.263637 0.000000
0.790156 0.508647 0.000000
0.665320 0.610040 0.000000
0.569625 0.652380 0.000000
0.484478 0.656150 0.000000
0.435786 0.655278 0.000000
0.389960 0.665320 0.000000
0.367503 0.726574 0.000000
0.349626 0.827162 0.000000
0.558779 0.895784 0.000000
1.000000 0.972125 0.000000
0.000000 0.011716 0.000000
0.727690 0.102007 0.000000
0.779369 0.245351 0.000000
0.753109 0.489073 0.000000
0.655278 0.564214 0.000000
0.561008 0.587200 0.000000
0.491957 0.574748 0.000000
0.412800 0.561008 0.000000
0.347620 0.569625 0.000000
0.316829 0.694361 0.000000
0.264923 0.821726 0.000000
0.440366 0.892151 0.000000
1.000000 0.980043 0.000000
0.000000 0.013799 0.000000
0.656872 0.106985 0.000000
0.776236 0.206519 0.000000
0.711323 0.406272 0.000000
0.656150 0.515522 0.000000
0.574748 0.508043 0.000000
0.500000 0.500000 0.000000
0.425252 0.491957 0.000000
0.343850 0.484478 0.000000
0.288677 0.593729 0.000000
0.223765 0.793481 0.000000
0.343130 0.893015 0.000000
1.000000 0.986202 0.000000
0.000000 0.019957 0.000000
0.559635 0.107850 0.000000
0.735078 0.178274 0.000000
0.683171 0.305639 0.000000
0.652380 0.430375 0.000000
0.587200 0.438992 0.000000
0.508043 0.425252 0.000000
0.438992 0.412800 0.000000
0.344722 0.435786 0.000000
0.246891 0.510926 0.000000
0.220631 0.754649 0.000000
0.272311 0.897993 0.000000
1.000000 0.988284 0.000000
0.000000 0.027875 0.000000
0.441222 0.104216 0.000000
0.650374 0.172838 0.000000
0.632497 0.273426 0.000000
0.610040 0.334680 0.000000
0.564214 0.344722 0.000000
0.515522 0.343850 0.000000
0.430375 0.347620 0.000000
0.334680 0.389960 0.000000
0.209844 0.491353 0.000000
0.203671 0.736363 0.000000
0.248217 0.911700 0.000000
1.000000 0.987271 0.000000
0.000000 0.037406 0.000000
0.357664 0.114092 0.000000
0.511853 0.154496 0.000000
0.518580 0.179110 0.000000
0.508647 0.209844 0.000000
0.489074 0.246891 0.000000
0.406271 0.288677 0.000000
0.305639 0.316828 0.000000
0.273426 0.367503 0.000000
0.179110 0.481420 0.000000
0.168995 0.737015 0.000000
0.250639 0.930876 0.000000
1.000000 0.987018 0.000000
0.000000 0.092734 0.000000
0.114584 0.079892 0.000000
0.236843 0.122610 0.000000
0.262985 0.168995 0.000000
0.263637 0.203671 0.000000
0.245351 0.220631 0.000000
0.206519 0.223764 0.000000
0.178274 0.264922 0.000000
0.172837 0.349626 0.000000
0.154496 0.488147 0.000000
0.122610 0.763157 0.000000
0.286956 0.955785 0.000000
1.000000 0.986607 0.000000
0.000000 0.490554 0.000000
0.016518 0.398565 0.000000
0.044215 0.286956 0.000000
0.069124 0.250639 0.000000
0.088300 0.248217 0.000000
0.102007 0.272311 0.000000
0.106985 0.343130 0.000000
0.107849 0.440367 0.000000
0.104216 0.558779 0.000000
0.114091 0.642337 0.000000
0.079892 0.885416 0.000000
0.398565 0.983482 0.000000
1.000000 0.994341 0.000000
0.000000 1.000000 0.000000
0.005659 1.000000 0.000000
0.013393 1.000000 0.000000
0.012982 1.000000 0.000000
0.012729 1.000000 0.000000
0.011716 1.000000 0.000000
0.013799 1.000000 0.000000
0.019957 1.000000 0.000000
0.027875 1.000000 0.000000
0.037406 1.000000 0.000000
0.092733 1.000000 0.000000
0.490554 1.000000 0.000000
1.000000 1.000000 0.000000
0.000000 0.000000 0.082500
0.509447 0.000000 0.082500
0.907267 0.000000 0.082500
0.962594 0.000000 0.082500
0.972125 0.000000 0.082500
0.980043 0.000000 0.082500
0.986201 0.000000 0.082500
0.988284 0.000000 0.082500
0.987271 0.000000 0.082500
0.987018 0.000000 0.082500
0.986607 0.000000 0.082500
0.994341 0.000000 0.082500
1.000000 0.000000 0.082500
0.000000 0.005659 0.082500
0.601435 0.016518 0.082500
0.920108 0.114584 0.082500
0.885908 0.357663 0.082500
0.895784 0.441222 0.082500
0.892150 0.559635 0.082500
0.893015 0.656872 0.082500
0.897993 0.727690 0.082500
0.911700 0.751784 0.082500
0.930876 0.749362 0.082500
0.955785 0.713044 0.082500
0.983482 0.601436 0.082500
1.000000 0.509447 0.082500
0.000000 0.013393 0.082500
0.713044 0.044215 0.082500
0.877391 0.236843 0.082500
0.845504 0.511853 0.082500
0.827162 0.650374 0.082500
0.821726 0.735078 0.082500
0.793481 0.776236 0.082500
0.754649 0.779369 0.082500
0.736364 0.796329 0.082500
0.737015 0.831005 0.082500
0.763157 0.877391 0.082500
0.885416 0.920108 0.082500
1.000000 0.907267 0.082500
0.000000 0.012982 0.082500
0.749361 0.069124 0.082500
0.831005 0.262985 0.082500
0.820890 0.518580 0.082500
0.726574 0.632497 0.082500
0.694361 0.683171 0.082500
0.593728 0.711323 0.082500
0.510927 0.753109 0.082500
0.491353 0.790156 0.082500
0.481420 0.820890 0.082500
0.488147 0.845504 0.082500
0.642337 0.885909 0.082500
1.000000 0.962594 0.082500
0.000000 0.012729 0.082500
0.751784 0.088300 0.082500
0.796329 0.263637 0.082500
0.790156 0.508647 0.082500
0.665320 0.610040 0.082500
0.569625 0.652380 0.082500
0.484478 0.656150 0.082500
0.435786 0.655278 0.082500
0.389960 0.665320 0.082500
0.367503 0.726574 0.082500
0.349626 0.827162 0.082500
0.558779 0.895784 0.082500
1.000000 0.972125 0.082500
0.000000 0.011716 0.082500
0.727690 0.102007 0.082500
0.779369 0.245351 0.082500
0.753109 0.489073 0.082500
0.655278 0.564214 0.082500
0.561008 0.587200 0.082500
0.491957 0.574748 0.082500
0.412800 0.561008 0.082500
0.347620 0.569625 0.082500
0.316829 0.694361 0.082500
0.264923 0.821726 0.082500
0.440366 0.892151 0.082500
1.000000 0.980043 0.082500
0.000000 0.013799 0.082500
0.656872 0.106985 0.082500
0.776236 0.206519 0.082500
0.711323 0.406272 0.082500
0.656150 0.515522 0.082500
0.574748 0.508043 0.082500
0.500000 0.500000 0.082500
0.425252 0.491957 0.082500
0.343850 0.484478 0.082500
0.288677 0.593729 0.082500
0.223765 0.793481 0.082500
0.343130 0.893015 0.082500
1.000000 0.986202 0.082500
0.000000 0.019957 0.082500
0.559635 0.107850 0.082500
0.735078 0.178274 0.082500
0.683171 0.305639 0.082500
0.652380 0.430375 0.082500
0.587200 0.438992 0.082500
0.508043 0.425252 0.082500
0.438992 0.412800 0.082500
0.344722 0.435786 0.082500
0.246891 0.510926 0.082500
0.220631 0.754649 0.082500
0.272311 0.897993 0.082500
1.000000 0.988284 0.082500
0.000000 0.027875 0.082500
0.441222 0.104216 0.082500
0.650374 0.172838 0.082500
0.632497 0.273426 0.082500
0.610040 0.334680 0.082500
0.564214 0.344722 0.082500
0.515522 0.343850 0.082500
0.430375 0.347620 0.082500
0.334680 0.389960 0.082500
0.209844 0.491353 0.082500
0.203671 0.736363 0.082500
0.248217 0.911700 0.082500
1.000000 0.987271 0.082500
0.000000 0.037406 0.082500
0.357664 0.114092 0.082500
0.511853 0.154496 0.082500
0.518580 0.179110 0.082500
0.508647 0.209844 0.082500
0.489074 0.246891 0.082500
0.406271 0.288677 0.082500
0.305639 0.316828 0.082500
0.273426 0.367503 0.082500
0.179110 0.481420 0.082500
0.168995 0.737015 0.082500
0.250639 0.930876 0.082500
1.000000 0.987018 0.082500
0.000000 0.092734 0.082500
0.114584 0.079892 0.082500
0.236843 0.122610 0.082500
0.262985 0.168995 0.082500
0.263637 0.203671 0.082500
0.245351 0.220631 0.082500
0.206519 0.223764 0.082500
0.178274 0.264922 0.082500
0.172837 0.349626 0.082500
0.154496 0.488147 0.082500
0.122610 0.763157 0.082500
0.286956 0.955785 0.082500
1.000000 0.986607 0.082500
0.000000 0.490554 0.082500
0.016518 0.398565 0.082500
0.044215 0.286956 0.082500
0.069124 0.250639 0.082500
0.088300 0.248217 0.082500
0.102007 0.272311 0.082500
0.106985 0.343130 0.082500
0.107849 0.440367 0.082500
0.104216 0.558779 0.082500
0.114091 0.642337 0.082500
0.079892 0.885416 0.082500
0.398565 0.983482 0.082500
1.000000 0.994341 0.082500
0.000000 1.000000 0.082500
0.005659 1.000000 0.082500
0.013393 1.000000 0.082500
0.012982 1.000000 0.082500
0.012729 1.000000 0.082500
0.011716 1.000000 0.082500
0.013799 1.000000 0.082500
0.019957 1.000000 0.082500
0.027875 1.000000 0.082500
0.037406 1.000000 0.082500
0.092733 1.000000 0.082500
0.490554 1.000000 0.082500
1.000000 1.000000 0.082500
0.000000 0.000000 0.165000
0.509447 0.000000 0.165000
0.907267 0.000000 0.165000
0.962594 0.000000 0.165000
0.972125 0.000000 0.165000
0.980043 0.000000 0.165000
0.986201 0.000000 0.165000
0.988284 0.000000 0.165000
0.987271 0.000000 0.165000
0.987018 0.000000 0.165000
0.986607 0.000000 0.165000
0.994341 0.000000 0.165000
1.000000 0.000000 0.165000
0.000000 0.005659 0.165000
0.601435 0.016518 0.165000
0.920108 0.114584 0.165000
0.885908 0.357663 0.165000
0.895784 0.441222 0.165000
0.892150 0.559635 0.165000
0.893015 0.656872 0.165000
0.897993 0.727690 0.165000
0.911700 0.751784 0.165000
0.930876 0.749362 0.165000
0.955785 0.713044 0.165000
0.983482 0.601436 0.165000
1.000000 0.509447 0.165000
0.000000 0.013393 0.165000
0.713044 0.044215 0.165000
0.877391 0.236843 0.165000
0.845504 0.511853 0.165000
0.827162 0.650374 0.165000
0.821726 0.735078 0.165000
0.793481 0.776236 0.165000
0.754649 0.779369 0.165000
0.736364 0.796329 0.165000
0.737015 0.831005 0.165000
0.763157 0.877391 0.165000
0.885416 0.920108 0.165000
1.000000 0.907267 0.165000
0.000000 0.012982 0.165000
0.749361 0.069124 0.165000
0.831005 0.262985 0.165000
0.820890 0.518580 0.165000
0.726574 0.632497 0.165000
0.694361 0.683171 0.165000
0.593728 0.711323 0.165000
0.510927 0.753109 0.165000
0.491353 0.790156 0.165000
0.481420 0.820890 0.165000
0.488147 0.845504 0.165000
0.642337 0.885909 0.165000
1.000000 0.962594 0.165000
0.000000 0.012729 0.165000
0.751784 0.088300 0.165000
0.796329 0.263637 0.165000
0.790156 0.508647 0.165000
0.665320 0.610040 0.165000
0.569625 0.652380 0.165000
0.484478 0.656150 0.165000
0.435786 0.655278 0.165000
0.389960 0.665320 0.165000
0.367503 0.726574 0.165000
0.349626 0.827162 0.165000
0.558779 0.895784 0.165000
1.000000 0.972125 0.165000
0.000000 0.011716 0.165000
0.727690 0.102007 0.165000
0.779369 0.245351 0.165000
0.753109 0.489073 0.165000
0.655278 0.564214 0.165000
0.561008 0.587200 0.165000
0.491957 0.574748 0.165000
0.412800 0.561008 0.165000
0.347620 0.569625 0.165000
0.316829 0.694361 0.165000
0.264923 0.821726 0.165000
0.440366 0.892151 0.165000
1.000000 0.980043 0.165000
0.000000 0.013799 0.165000
0.656872 0.106985 0.165000
0.776236 0.206519 0.165000
0.711323 0.406272 0.165000
0.656150 0.515522 0.165000
0.574748 0.508043 0.165000
0.500000 0.500000 0.165000
0.425252 0.491957 0.165000
0.343850 0.484478 0.165000
0.288677 0.593729 0.165000
0.223765 0.793481 0.165000
0.343130 0.893015 0.165000
1.000000 0.986202 0.165000
0.000000 0.019957 0.165000
0.559635 0.107850 0.165000
0.735078 0.178274 0.165000
0.683171 0.305639 0.165000
0.652380 0.430375 0.165000
0.587200 0.438992 0.165000
0.508043 0.425252 0.165000
0.438992 0.412800 0.165000
0.344722 0.435786 0.165000
0.246891 0.510926 0.165000
0.220631 0.754649 0.165000
0.272311 0.897993 0.165000
1.000000 0.988284 0.165000
0.000000 0.027875 0.165000
0.441222 0.104216 0.165000
0.650374 0.172838 0.165000
0.632497 0.273426 0.165000
0.610040 0.334680 0.165000
0.564214 0.344722 0.165000
0.515522 0.343850 0.165000
0.430375 0.347620 0.165000
0.334680 0.389960 0.165000
0.209844 0.491353 0.165000
0.203671 0.736363 0.165000
0.248217 0.911700 0.165000
1.000000 0.987271 0.165000
0.000000 0.037406 0.165000
0.357664 0.114092 0.165000
0.511853 0.154496 0.165000
0.518580 0.179110 0.165000
0.508647 0.209844 0.165000
0.489074 0.246891 0.165000
0.406271 0.288677 0.165000
0.305639 0.316828 0.165000
0.273426 0.367503 0.165000
0.179110 0.481420 0.165000
0.168995 0.737015 0.165000
0.250639 0.930876 0.165000
1.000000 0.987018 0.165000
0.000000 0.092734 0.165000
0.114584 0.079892 0.165000
0.236843 0.122610 0.165000
0.262985 0.168995 0.165000
0.263637 0.203671 0.165000
0.245351 0.220631 0.165000
0.206519 0.223764 0.165000
0.178274 0.264922 0.165000
0.172837 0.349626 0.165000
0.154496 0.488147 0.165000
0.122610 0.763157 0.165000
0.286956 0.955785 0.165000
1.000000 0.986607 0.165000
0.000000 0.490554 0.165000
0.016518 0.398565 0.165000
0.044215 0.286956 0.165000
0.069124 0.250639 0.165000
0.088300 0.248217 0.165000
0.102007 0.272311 0.165000
0.106985 0.343130 0.165000
0.107849 0.440367 0.165000
0.104216 0.558779 0.165000
0.114091 0.642337 0.165000
0.079892 0.885416 0.165000
0.398565 0.983482 0.165000
1.000000 0.994341 0.165000
0.000000 1.000000 0.165000
0.005659 1.000000 0.165000
0.013393 1.000000 0.165000
0.012982 1.000000 0.165000
0.012729 1.000000 0.165000
0.011716 1.000000 0.165000
0.013799 1.000000 0.165000
0.019957 1.000000 0.165000
0.027875 1.000000 0.165000
0.037406 1.000000 0.165000
0.092733 1.000000 0.165000
0.490554 1.000000 0.165000
1.000000 1.000000 0.165000
0.000000 0.000000 0.247500
0.509447 0.000000 0.247500
0.907267 0.000000 0.247500
0.962594 0.000000 0.247500
0.972125 0.000000 0.247500
0.980043 0.000000 0.247500
0.986201 0.000000 0.247500
0.988284 0.000000 0.247500
0.987271 0.000000 0.247500
0.987018 0.000000 0.247500
0.986607 0.000000 0.247500
0.994341 0.000000 0.247500
1.000000 0.000000 0.247500
0.000000 0.005659 0.247500
0.601435 0.016518 0.247500
0.920108 0.114584 0.247500
0.885908 0.357663 0.247500
0.895784 0.441222 0.247500
0.892150 0.559635 0.247500
0.893015 0.656872 0.247500
0.897993 0.727690 0.247500
0.911700 0.751784 0.247500
0.930876 0.749362 0.247500
0.955785 0.713044 0.247500
0.983482 0.601436 0.247500
1.000000 0.509447 0.247500
0.000000 0.013393 0.247500
0.713044 0.044215 0.247500
0.877391 0.236843 0.247500
0.845504 0.511853 0.247500
0.827162 0.650374 0.247500
0.821726 0.735078 0.247500
0.793481 0.776236 0.247500
0.754649 0.779369 0.247500
0.736364 0.796329 0.247500
0.737015 0.831005 0.247500
0.763157 0.877391 0.247500
0.885416 0.920108 0.247500
1.000000 0.907267 0.247500
0.000000 0.012982 0.247500
0.749361 0.069124 0.247500
0.831005 0.262985 0.247500
0.820890 0.518580 0.247500
0.726574 0.632497 0.247500
0.694361 0.683171 0.247500
0.593728 0.711323 0.247500
0.510927 0.753109 0.247500
0.491353 0.790156 0.247500
0.481420 0.820890 0.247500
0.488147 0.845504 0.247500
0.642337 0.885909 0.247500
1.000000 0.962594 0.247500
0.000000 0.012729 0.247500
0.751784 0.088300 0.247500
0.796329 0.263637 0.247500
0.790156 0.508647 0.247500
0.665320 0.610040 0.247500
0.569625 0.652380 0.247500
0.484478 0.656150 0.247500
0.435786 0.655278 0.247500
0.389960 0.665320 0.247500
0.367503 0.726574 0.247500
0.349626 0.827162 0.247500
0.558779 0.895784 0.247500
1.000000 0.972125 0.247500
0.000000 0.011716 0.247500
0.727690 0.102007 0.247500
0.779369 0.245351 0.247500
0.753109 0.489073 0.247500
0.655278 0.564214 0.247500
0.561008 0.587200 0.247500
0.491957 0.574748 0.247500
0.412800 0.561008 0.247500
0.347620 0.569625 0.247500
0.316829 0.694361 0.247500
0.264923 0.821726 0.247500
0.440366 0.892151 0.247500
1.000000 0.980043 0.247500
0.000000 0.013799 0.247500
0.656872 0.106985 0.247500
0.776236 0.206519 0.247500
0.711323 0.406272 0.247500
0.656150 0.515522 0.247500
0.574748 0.508043 0.247500
0.500000 0.500000 0.247500
0.425252 0.491957 0.247500
0.343850 0.484478 0.247500
0.288677 0.593729 0.247500
0.223765 0.793481 0.247500
0.343130 0.893015 0.247500
1.000000 0.986202 0.247500
0.000000 0.019957 0.247500
0.559635 0.107850 0.247500
0.735078 0.178274 0.247500
0.683171 0.305639 0.247500
0.652380 0.430375 0.247500
0.587200 0.438992 0.247500
0.508043 0.425252 0.247500
0.438992 0.412800 0.247500
0.344722 0.435786 0.247500
0.246891 0.510926 0.247500
0.220631 0.754649 0.247500
0.272311 0.897993 0.247500
1.000000 0.988284 0.247500
0.000000 0.027875 0.247500
0.441222 0.104216 0.247500
0.650374 0.172838 0.247500
0.632497 0.273426 0.247500
0.610040 0.334680 0.247500
0.564214 0.344722 0.247500
0.515522 0.343850 0.247500
0.430375 0.347620 0.247500
0.334680 0.389960 0.247500
0.209844 0.491353 0.247500
0.203671 0.736363 0.247500
0.248217 0.911700 0.247500
1.000000 0.987271 0.247500
0.000000 0.037406 0.247500
0.357664 0.114092 0.247500
0.511853 0.154496 0.247500
0.518580 0.179110 0.247500
0.508647 0.209844 0.247500
0.489074 0.246891 0.247500
0.406271 0.288677 0.247500
0.305639 0.316828 0.247500
0.273426 0.367503 0.247500
0.179110 0.481420 0.247500
0.168995 0.737015 0.247500
0.250639 0.930876 0.247500
1.000000 0.987018 0.247500
0.000000 0.092734 0.247500
0.114584 0.079892 0.247500
0.236843 0.122610 0.247500
0.262985 0.168995 0.247500
0.263637 0.203671 0.247500
0.245351 0.220631 0.247500
0.206519 0.223764 0.247500
0.178274 0.264922 0.247500
0.172837 0.349626 0.247500
0.154496 0.488147 0.247500
0.122610 0.763157 0.247500
0.286956 0.955785 0.247500
1.000000 0.986607 0.247500
0.000000 0.490554 0.247500
0.016518 0.398565 0.247500
0.044215 0.286956 0.247500
0.069124 0.250639 0.247500
0.088300 0.248217 0.247500
0.102007 0.272311 0.247500
0.106985 0.343130 0.247500
0.107849 0.440367 0.247500
0.104216 0.558779 0.247500
0.114091 0.642337 0.247500
0.079892 0.885416 0.247500
0.398565 0.983482 0.247500
1.000000 0.994341 0.247500
0.000000 1.000000 0.247500
0.005659 1.000000 0.247500
0.013393 1.000000 0.247500
0.012982 1.000000 0.247500
0.012729 1.000000 0.247500
0.011716 1.000000 0.247500
0.013799 1.000000 0.247500
0.019957 1.000000 0.247500
0.027875 1.000000 0.247500
0.037406 1.000000 0.247500
0.092733 1.000000 0.247500
0.490554 1.000000 0.247500
1.000000 1.000000 0.247500
0.000000 0.000000 0.330000
0.509447 0.000000 0.330000
0.907267 0.000000 0.330000
0.962594 0.000000 0.330000
0.972125 0.000000 0.330000
0.980043 0.000000 0.330000
0.986201 0.000000 0.330000
0.988284 0.000000 0.330000
0.987271 0.000000 0.330000
0.987018 0.000000 0.330000
0.986607 0.000000 0.330000
0.994341 0.000000 0.330000
1.000000 0.000000 0.330000
0.000000 0.005659 0.330000
0.601435 0.016518 0.330000
0.920108 0.114584 0.330000
0.885908 0.357663 0.330000
0.895784 0.441222 0.330000
0.892150 0.559635 0.330000
0.893015 0.656872 0.330000
0.897993 0.727690 0.330000
0.911700 0.751784 0.330000
0.930876 0.749362 0.330000
0.955785 0.713044 0.330000
0.983482 0.601436 0.330000
1.000000 0.509447 0.330000
0.000000 0.013393 0.330000
0.713044 0.044215 0.330000
0.877391 0.236843 0.330000
0.845504 0.511853 0.330000
0.827162 0.650374 0.330000
0.821726 0.735078 0.330000
0.793481 0.776236 0.330000
0.754649 0.779369 0.330000
0.736364 0.796329 0.330000
0.737015 0.831005 0.330000
0.763157 0.877391 0.330000
0.885416 0.920108 0.330000
1.000000 0.907267 0.330000
0.000000 0.012982 0.330000
0.749361 0.069124 0.330000
0.831005 0.262985 0.330000
0.820890 0.518580 0.330000
0.726574 0.632497 0.330000
0.694361 0.683171 0.330000
0.593728 0.711323 0.330000
0.510927 0.753109 0.330000
0.491353 0.790156 0.330000
0.481420 0.820890 0.330000
0.488147 0.845504 0.330000
0.642337 0.885909 0.330000
1.000000 0.962594 0.330000
0.000000 0.012729 0.330000
0.751784 0.088300 0.330000
0.796329 0.263637 0.330000
0.790156 0.508647 0.330000
0.665320 0.610040 0.330000
0.569625 0.652380 0.330000
0.484478 0.656150 0.330000
0.435786 0.655278 0.330000
0.389960 0.665320 0.330000
0.367503 0.726574 0.330000
0.349626 0.827162 0.330000