# vtk DataFile Version 2.0
Mesh for Fierro
ASCII 
DATASET UNSTRUCTURED_GRID

POINTS 845 float
0.000000 0.000000 0.000000
0.229405 0.000000 0.000000
0.415186 0.000000 0.000000
0.553056 0.000000 0.000000
0.652866 0.000000 0.000000
0.730062 0.000000 0.000000
0.790288 0.000000 0.000000
0.838969 0.000000 0.000000
0.879089 0.000000 0.000000
0.913636 0.000000 0.000000
0.944939 0.000000 0.000000
0.973136 0.000000 0.000000
1.000000 0.000000 0.000000
0.000000 0.026864 0.000000
0.226064 0.032122 0.000000
0.410198 0.042881 0.000000
0.545637 0.060164 0.000000
0.644825 0.080893 0.000000
0.719824 0.104112 0.000000
0.778232 0.129493 0.000000
0.825071 0.154605 0.000000
0.864779 0.179787 0.000000
0.901188 0.200561 0.000000
0.934292 0.215744 0.000000
0.967878 0.226064 0.000000
1.000000 0.229405 0.000000
0.000000 0.055061 0.000000
0.215744 0.065708 0.000000
0.393550 0.085247 0.000000
0.523972 0.117491 0.000000
0.619563 0.155004 0.000000
0.691401 0.197261 0.000000
0.747679 0.242886 0.000000
0.793676 0.287811 0.000000
0.834103 0.332370 0.000000
0.874804 0.367463 0.000000
0.914753 0.393550 0.000000
0.957119 0.410198 0.000000
1.000000 0.415186 0.000000
0.000000 0.086364 0.000000
0.200561 0.098812 0.000000
0.367463 0.125196 0.000000
0.490614 0.169278 0.000000
0.581139 0.220108 0.000000
0.646706 0.276568 0.000000
0.697866 0.336355 0.000000
0.742804 0.392116 0.000000
0.783522 0.446384 0.000000
0.830722 0.490614 0.000000
0.882509 0.523972 0.000000
0.939836 0.545637 0.000000
1.000000 0.553056 0.000000
0.000000 0.120911 0.000000
0.179787 0.135221 0.000000
0.332370 0.165897 0.000000
0.446384 0.216478 0.000000
0.533088 0.277391 0.000000
0.590946 0.343361 0.000000
0.636389 0.412431 0.000000
0.680071 0.475082 0.000000
0.722609 0.533088 0.000000
0.779892 0.581139 0.000000
0.844996 0.619563 0.000000
0.919107 0.644825 0.000000
1.000000 0.652866 0.000000
0.000000 0.161031 0.000000
0.154605 0.174929 0.000000
0.287811 0.206324 0.000000
0.392116 0.257196 0.000000
0.475082 0.319929 0.000000
0.527694 0.388095 0.000000
0.569966 0.459443 0.000000
0.611905 0.527694 0.000000
0.656639 0.590946 0.000000
0.723432 0.646706 0.000000
0.802739 0.691401 0.000000
0.895888 0.719824 0.000000
1.000000 0.730062 0.000000
0.000000 0.209712 0.000000
0.129493 0.221768 0.000000
0.242886 0.252321 0.000000
0.336355 0.302134 0.000000
0.412431 0.363611 0.000000
0.459443 0.430034 0.000000
0.500000 0.500000 0.000000
0.540557 0.569966 0.000000
0.587569 0.636389 0.000000
0.663645 0.697866 0.000000
0.757114 0.747679 0.000000
0.870508 0.778232 0.000000
1.000000 0.790288 0.000000
0.000000 0.269938 0.000000
0.104112 0.280176 0.000000
0.197261 0.308599 0.000000
0.276568 0.353294 0.000000
0.343361 0.409054 0.000000
0.388095 0.472306 0.000000
0.430034 0.540557 0.000000
0.472306 0.611905 0.000000
0.524918 0.680071 0.000000
0.607884 0.742804 0.000000
0.712189 0.793676 0.000000
0.845396 0.825071 0.000000
1.000000 0.838969 0.000000
0.000000 0.347134 0.000000
0.080893 0.355175 0.000000
0.155004 0.380437 0.000000
0.220108 0.418861 0.000000
0.277391 0.466912 0.000000
0.319929 0.524918 0.000000
0.363611 0.587569 0.000000
0.409054 0.656639 0.000000
0.466912 0.722609 0.000000
0.553616 0.783522 0.000000
0.667630 0.834103 0.000000
0.820213 0.864779 0.000000
1.000000 0.879089 0.000000
0.000000 0.446944 0.000000
0.060164 0.454363 0.000000
0.117491 0.476028 0.000000
0.169278 0.509386 0.000000
0.216478 0.553616 0.000000
0.257196 0.607884 0.000000
0.302134 0.663645 0.000000
0.353294 0.723432 0.000000
0.418861 0.779892 0.000000
0.509386 0.830722 0.000000
0.632537 0.874804 0.000000
0.799439 0.901188 0.000000
1.000000 0.913636 0.000000
0.000000 0.584814 0.000000
0.042881 0.589802 0.000000
0.085247 0.606450 0.000000
0.125196 0.632537 0.000000
0.165897 0.667630 0.000000
0.206324 0.712189 0.000000
0.252321 0.757114 0.000000
0.308599 0.802739 0.000000
0.380437 0.844996 0.000000
0.476028 0.882509 0.000000
0.606450 0.914753 0.000000
0.784257 0.934292 0.000000
1.000000 0.944939 0.000000
0.000000 0.770595 0.000000
0.032122 0.773937 0.000000
0.065708 0.784257 0.000000
0.098812 0.799439 0.000000
0.135221 0.820213 0.000000
0.174929 0.845396 0.000000
0.221768 0.870508 0.000000
0.280176 0.895888 0.000000
0.355175 0.919107 0.000000
0.454363 0.939836 0.000000
0.589802 0.957119 0.000000
0.773937 0.967878 0.000000
1.000000 0.973136 0.000000
0.000000 1.000000 0.000000
0.026864 1.000000 0.000000
0.055061 1.000000 0.000000
0.086364 1.000000 0.000000
0.120911 1.000000 0.000000
0.161031 1.000000 0.000000
0.209712 1.000000 0.000000
0.269938 1.000000 0.000000
0.347134 1.000000 0.000000
0.446944 1.000000 0.000000
0.584814 1.000000 0.000000
0.770595 1.000000 0.000000
1.000000 1.000000 0.000000
0.000000 0.000000 0.082500
0.229405 0.000000 0.082500
0.415186 0.000000 0.082500
0.553056 0.000000 0.082500
0.652866 0.000000 0.082500
0.730062 0.000000 0.082500
0.790288 0.000000 0.082500
0.838969 0.000000 0.082500
0.879089 0.000000 0.082500
0.913636 0.000000 0.082500
0.944939 0.000000 0.082500
0.973136 0.000000 0.082500
1.000000 0.000000 0.082500
0.000000 0.026864 0.082500
0.226064 0.032122 0.082500
0.410198 0.042881 0.082500
0.545637 0.060164 0.082500
0.644825 0.080893 0.082500
0.719824 0.104112 0.082500
0.778232 0.129493 0.082500
0.825071 0.154605 0.082500
0.864779 0.179787 0.082500
0.901188 0.200561 0.082500
0.934292 0.215744 0.082500
0.967878 0.226064 0.082500
1.000000 0.229405 0.082500
0.000000 0.055061 0.082500
0.215744 0.065708 0.082500
0.393550 0.085247 0.082500
0.523972 0.117491 0.082500
0.619563 0.155004 0.082500
0.691401 0.197261 0.082500
0.747679 0.242886 0.082500
0.793676 0.287811 0.082500
0.834103 0.332370 0.082500
0.874804 0.367463 0.082500
0.914753 0.393550 0.082500
0.957119 0.410198 0.082500
1.000000 0.415186 0.082500
0.000000 0.086364 0.082500
0.200561 0.098812 0.082500
0.367463 0.125196 0.082500
0.490614 0.169278 0.082500
0.581139 0.220108 0.082500
0.646706 0.276568 0.082500
0.697866 0.336355 0.082500
0.742804 0.392116 0.082500
0.783522 0.446384 0.082500
0.830722 0.490614 0.082500
0.882509 0.523972 0.082500
0.939836 0.545637 0.082500
1.000000 0.553056 0.082500
0.000000 0.120911 0.082500
0.179787 0.135221 0.082500
0.332370 0.165897 0.082500
0.446384 0.216478 0.082500
0.533088 0.277391 0.082500
0.590946 0.343361 0.082500
0.636389 0.412431 0.082500
0.680071 0.475082 0.082500
0.722609 0.533088 0.082500
0.779892 0.581139 0.082500
0.844996 0.619563 0.082500
0.919107 0.644825 0.082500
1.000000 0.652866 0.082500
0.000000 0.161031 0.082500
0.154605 0.174929 0.082500
0.287811 0.206324 0.082500
0.392116 0.257196 0.082500
0.475082 0.319929 0.082500
0.527694 0.388095 0.082500
0.569966 0.459443 0.082500
0.611905 0.527694 0.082500
0.656639 0.590946 0.082500
0.723432 0.646706 0.082500
0.802739 0.691401 0.082500
0.895888 0.719824 0.082500
1.000000 0.730062 0.082500
0.000000 0.209712 0.082500
0.129493 0.221768 0.082500
0.242886 0.252321 0.082500
0.336355 0.302134 0.082500
0.412431 0.363611 0.082500
0.459443 0.430034 0.082500
0.500000 0.500000 0.082500
0.540557 0.569966 0.082500
0.587569 0.636389 0.082500
0.663645 0.697866 0.082500
0.757114 0.747679 0.082500
0.870508 0.778232 0.082500
1.000000 0.790288 0.082500
0.000000 0.269938 0.082500
0.104112 0.280176 0.082500
0.197261 0.308599 0.082500
0.276568 0.353294 0.082500
0.343361 0.409054 0.082500
0.388095 0.472306 0.082500
0.430034 0.540557 0.082500
0.472306 0.611905 0.082500
0.524918 0.680071 0.082500
0.607884 0.742804 0.082500
0.712189 0.793676 0.082500
0.845396 0.825071 0.082500
1.000000 0.838969 0.082500
0.000000 0.347134 0.082500
0.080893 0.355175 0.082500
0.155004 0.380437 0.082500
0.220108 0.418861 0.082500
0.277391 0.466912 0.082500
0.319929 0.524918 0.082500
0.363611 0.587569 0.082500
0.409054 0.656639 0.082500
0.466912 0.722609 0.082500
0.553616 0.783522 0.082500
0.667630 0.834103 0.082500
0.820213 0.864779 0.082500
1.000000 0.879089 0.082500
0.000000 0.446944 0.082500
0.060164 0.454363 0.082500
0.117491 0.476028 0.082500
0.169278 0.509386 0.082500
0.216478 0.553616 0.082500
0.257196 0.607884 0.082500
0.302134 0.663645 0.082500
0.353294 0.723432 0.082500
0.418861 0.779892 0.082500
0.509386 0.830722 0.082500
0.632537 0.874804 0.082500
0.799439 0.901188 0.082500
1.000000 0.913636 0.082500
0.000000 0.584814 0.082500
0.042881 0.589802 0.082500
0.085247 0.606450 0.082500
0.125196 0.632537 0.082500
0.165897 0.667630 0.082500
0.206324 0.712189 0.082500
0.252321 0.757114 0.082500
0.308599 0.802739 0.082500
0.380437 0.844996 0.082500
0.476028 0.882509 0.082500
0.606450 0.914753 0.082500
0.784257 0.934292 0.082500
1.000000 0.944939 0.082500
0.000000 0.770595 0.082500
0.032122 0.773937 0.082500
0.065708 0.784257 0.082500
0.098812 0.799439 0.082500
0.135221 0.820213 0.082500
0.174929 0.845396 0.082500
0.221768 0.870508 0.082500
0.280176 0.895888 0.082500
0.355175 0.919107 0.082500
0.454363 0.939836 0.082500
0.589802 0.957119 0.082500
0.773937 0.967878 0.082500
1.000000 0.973136 0.082500
0.000000 1.000000 0.082500
0.026864 1.000000 0.082500
0.055061 1.000000 0.082500
0.086364 1.000000 0.082500
0.120911 1.000000 0.082500
0.161031 1.000000 0.082500
0.209712 1.000000 0.082500
0.269938 1.000000 0.082500
0.347134 1.000000 0.082500
0.446944 1.000000 0.082500
0.584814 1.000000 0.082500
0.770595 1.000000 0.082500
1.000000 1.000000 0.082500
0.000000 0.000000 0.165000
0.229405 0.000000 0.165000
0.415186 0.000000 0.165000
0.553056 0.000000 0.165000
0.652866 0.000000 0.165000
0.730062 0.000000 0.165000
0.790288 0.000000 0.165000
0.838969 0.000000 0.165000
0.879089 0.000000 0.165000
0.913636 0.000000 0.165000
0.944939 0.000000 0.165000
0.973136 0.000000 0.165000
1.000000 0.000000 0.165000
0.000000 0.026864 0.165000
0.226064 0.032122 0.165000
0.410198 0.042881 0.165000
0.545637 0.060164 0.165000
0.644825 0.080893 0.165000
0.719824 0.104112 0.165000
0.778232 0.129493 0.165000
0.825071 0.154605 0.165000
0.864779 0.179787 0.165000
0.901188 0.200561 0.165000
0.934292 0.215744 0.165000
0.967878 0.226064 0.165000
1.000000 0.229405 0.165000
0.000000 0.055061 0.165000
0.215744 0.065708 0.165000
[...]
POINT_DATA 845 
VECTORS pos float 
0.000000 0.000000 0.000000
0.229405 0.000000 0.000000
0.415186 0.000000 0.000000
0.553056 0.000000 0.000000
0.652866 0.000000 0.000000
0.730062 0.000000 0.000000
0.790288 0.000000 0.000000
0.838969 0.000000 0.000000
0.879089 0.000000 0.000000
0.913636 0.000000 0.000000
0.944939 0.000000 0.000000
0.973136 0.000000 0.000000
1.000000 0.000000 0.000000
0.000000 0.026864 0.000000
0.226064 0.032122 0.000000
0.410198 0.042881 0.000000
0.545637 0.060164 0.000000
0.644825 0.080893 0.000000
0.719824 0.104112 0.000000
0.778232 0.129493 0.000000
0.825071 0.154605 0.000000
0.864779 0.179787 0.000000
0.901188 0.200561 0.000000
0.934292 0.215744 0.000000
0.967878 0.226064 0.000000
1.000000 0.229405 0.000000
0.000000 0.055061 0.000000
0.215744 0.065708 0.000000
0.393550 0.085247 0.000000
0.523972 0.117491 0.000000
0.619563 0.155004 0.000000
0.691401 0.197261 0.000000
0.747679 0.242886 0.000000
0.793676 0.287811 0.000000
0.834103 0.332370 0.000000
0.874804 0.367463 0.000000
0.914753 0.393550 0.000000
0.957119 0.410198 0.000000
1.000000 0.415186 0.000000
0.000000 0.086364 0.000000
0.200561 0.098812 0.000000
0.367463 0.125196 0.000000
0.490614 0.169278 0.000000
0.581139 0.220108 0.000000
0.646706 0.276568 0.000000
0.697866 0.336355 0.000000
0.742804 0.392116 0.000000
0.783522 0.446384 0.000000
0.830722 0.490614 0.000000
0.882509 0.523972 0.000000
0.939836 0.545637 0.000000
1.000000 0.553056 0.000000
0.000000 0.120911 0.000000
0.179787 0.135221 0.000000
0.332370 0.165897 0.000000
0.446384 0.216478 0.000000
0.533088 0.277391 0.000000
0.590946 0.343361 0.000000
0.636389 0.412431 0.000000
0.680071 0.475082 0.000000
0.722609 0.533088 0.000000
0.779892 0.581139 0.000000
0.844996 0.619563 0.000000
0.919107 0.644825 0.000000
1.000000 0.652866 0.000000
0.000000 0.161031 0.000000
0.154605 0.174929 0.000000
0.287811 0.206324 0.000000
0.392116 0.257196 0.000000
0.475082 0.319929 0.000000
0.527694 0.388095 0.000000
0.569966 0.459443 0.000000
0.611905 0.527694 0.000000
0.656639 0.590946 0.000000
0.723432 0.646706 0.000000
0.802739 0.691401 0.000000
0.895888 0.719824 0.000000
1.000000 0.730062 0.000000
0.000000 0.209712 0.000000
0.129493 0.221768 0.000000
0.242886 0.252321 0.000000
0.336355 0.302134 0.000000
0.412431 0.363611 0.000000
0.459443 0.430034 0.000000
0.500000 0.500000 0.000000
0.540557 0.569966 0.000000
0.587569 0.636389 0.000000
0.663645 0.697866 0.000000
0.757114 0.747679 0.000000
0.870508 0.778232 0.000000
1.000000 0.790288 0.000000
0.000000 0.269938 0.000000
0.104112 0.280176 0.000000
0.197261 0.308599 0.000000
0.276568 0.353294 0.000000
0.343361 0.409054 0.000000
0.388095 0.472306 0.000000
0.430034 0.540557 0.000000
0.472306 0.611905 0.000000
0.524918 0.680071 0.000000
0.607884 0.742804 0.000000
0.712189 0.793676 0.000000
0.845396 0.825071 0.000000
1.000000 0.838969 0.000000
0.000000 0.347134 0.000000
0.080893 0.355175 0.000000
0.155004 0.380437 0.000000
0.220108 0.418861 0.000000
0.277391 0.466912 0.000000
0.319929 0.524918 0.000000
0.363611 0.587569 0.000000
0.409054 0.656639 0.000000
0.466912 0.722609 0.000000
0.553616 0.783522 0.000000
0.667630 0.834103 0.000000
0.820213 0.864779 0.000000
1.000000 0.879089 0.000000
0.000000 0.446944 0.000000
0.060164 0.454363 0.000000
0.117491 0.476028 0.000000
0.169278 0.509386 0.000000
0.216478 0.553616 0.000000
0.257196 0.607884 0.000000
0.302134 0.663645 0.000000
0.353294 0.723432 0.000000
0.418861 0.779892 0.000000
0.509386 0.830722 0.000000
0.632537 0.874804 0.000000
0.799439 0.901188 0.000000
1.000000 0.913636 0.000000
0.000000 0.584814 0.000000
0.042881 0.589802 0.000000
0.085247 0.606450 0.000000
0.125196 0.632537 0.000000
0.165897 0.667630 0.000000
0.206324 0.712189 0.000000
0.252321 0.757114 0.000000
0.308599 0.802739 0.000000
0.380437 0.844996 0.000000
0.476028 0.882509 0.000000
0.606450 0.914753 0.000000
0.784257 0.934292 0.000000
1.000000 0.944939 0.000000
0.000000 0.770595 0.000000
0.032122 0.773937 0.000000
0.065708 0.784257 0.000000
0.098812 0.799439 0.000000
0.135221 0.820213 0.000000
0.174929 0.845396 0.000000
0.221768 0.870508 0.000000
0.280176 0.895888 0.000000
0.355175 0.919107 0.000000
0.454363 0.939836 0.000000
0.589802 0.957119 0.000000
0.773937 0.967878 0.000000
1.000000 0.973136 0.000000
0.000000 1.000000 0.000000
0.026864 1.000000 0.000000
0.055061 1.000000 0.000000
0.086364 1.000000 0.000000
0.120911 1.000000 0.000000
0.161031 1.000000 0.000000
0.209712 1.000000 0.000000
0.269938 1.000000 0.000000
0.347134 1.000000 0.000000
0.446944 1.000000 0.000000
0.584814 1.000000 0.000000
0.770595 1.000000 0.000000
1.000000 1.000000 0.000000
0.000000 0.000000 0.082500
0.229405 0.000000 0.082500
0.415186 0.000000 0.082500
0.553056 0.000000 0.082500
0.652866 0.000000 0.082500
0.730062 0.000000 0.082500
0.790288 0.000000 0.082500
0.838969 0.000000 0.082500
0.879089 0.000000 0.082500
0.913636 0.000000 0.082500
0.944939 0.000000 0.082500
0.973136 0.000000 0.082500
1.000000 0.000000 0.082500
0.000000 0.026864 0.082500
0.226064 0.032122 0.082500
0.410198 0.042881 0.082500
0.545637 0.060164 0.082500
0.644825 0.080893 0.082500
0.719824 0.104112 0.082500
0.778232 0.129493 0.082500
0.825071 0.154605 0.082500
0.864779 0.179787 0.082500
0.901188 0.200561 0.082500
0.934292 0.215744 0.082500
0.967878 0.226064 0.082500
1.000000 0.229405 0.082500
0.000000 0.055061 0.082500
0.215744 0.065708 0.082500
0.393550 0.085247 0.082500
0.523972 0.117491 0.082500
0.619563 0.155004 0.082500
0.691401 0.197261 0.082500
0.747679 0.242886 0.082500
0.793676 0.287811 0.082500
0.834103 0.332370 0.082500
0.874804 0.367463 0.082500
0.914753 0.393550 0.082500
0.957119 0.410198 0.082500
1.000000 0.415186 0.082500
0.000000 0.086364 0.082500
0.200561 0.098812 0.082500
0.367463 0.125196 0.082500
0.490614 0.169278 0.082500
0.581139 0.220108 0.082500
0.646706 0.276568 0.082500
0.697866 0.336355 0.082500
0.742804 0.392116 0.082500
0.783522 0.446384 0.082500
0.830722 0.490614 0.082500
0.882509 0.523972 0.082500
0.939836 0.545637 0.082500
1.000000 0.553056 0.082500
0.000000 0.120911 0.082500
0.179787 0.135221 0.082500
0.332370 0.165897 0.082500
0.446384 0.216478 0.082500
0.533088 0.277391 0.082500
0.590946 0.343361 0.082500
0.636389 0.412431 0.082500
0.680071 0.475082 0.082500
0.722609 0.533088 0.082500
0.779892 0.581139 0.082500
0.844996 0.619563 0.082500
0.919107 0.644825 0.082500
1.000000 0.652866 0.082500
0.000000 0.161031 0.082500
0.154605 0.174929 0.082500
0.287811 0.206324 0.082500
0.392116 0.257196 0.082500
0.475082 0.319929 0.082500
0.527694 0.388095 0.082500
0.569966 0.459443 0.082500
0.611905 0.527694 0.082500
0.656639 0.590946 0.082500
0.723432 0.646706 0.082500
0.802739 0.691401 0.082500
0.895888 0.719824 0.082500
1.000000 0.730062 0.082500
0.000000 0.209712 0.082500
0.129493 0.221768 0.082500
0.242886 0.252321 0.082500
0.336355 0.302134 0.082500
0.412431 0.363611 0.082500
0.459443 0.430034 0.082500
0.500000 0.500000 0.082500
0.540557 0.569966 0.082500
0.587569 0.636389 0.082500
0.663645 0.697866 0.082500
0.757114 0.747679 0.082500
0.870508 0.778232 0.082500
1.000000 0.790288 0.082500
0.000000 0.269938 0.082500
0.104112 0.280176 0.082500
0.197261 0.308599 0.082500
0.276568 0.353294 0.082500
0.343361 0.409054 0.082500
0.388095 0.472306 0.082500
0.430034 0.540557 0.082500
0.472306 0.611905 0.082500
0.524918 0.680071 0.082500
0.607884 0.742804 0.082500
0.712189 0.793676 0.082500
0.845396 0.825071 0.082500
1.000000 0.838969 0.082500
0.000000 0.347134 0.082500
0.080893 0.355175 0.082500
0.155004 0.380437 0.082500
0.220108 0.418861 0.082500
0.277391 0.466912 0.082500
0.319929 0.524918 0.082500
0.363611 0.587569 0.082500
0.409054 0.656639 0.082500
0.466912 0.722609 0.082500
0.553616 0.783522 0.082500
0.667630 0.834103 0.082500
0.820213 0.864779 0.082500
1.000000 0.879089 0.082500
0.000000 0.446944 0.082500
0.060164 0.454363 0.082500
0.117491 0.476028 0.082500
0.169278 0.509386 0.082500
0.216478 0.553616 0.082500
0.257196 0.607884 0.082500
0.302134 0.663645 0.082500
0.353294 0.723432 0.082500
0.418861 0.779892 0.082500
0.509386 0.830722 0.082500
0.632537 0.874804 0.082500
0.799439 0.901188 0.082500
1.000000 0.913636 0.082500
0.000000 0.584814 0.082500
0.042881 0.589802 0.082500
0.085247 0.606450 0.082500
0.125196 0.632537 0.082500
0.165897 0.667630 0.082500
0.206324 0.712189 0.082500
0.252321 0.757114 0.082500
0.308599 0.802739 0.082500
0.380437 0.844996 0.082500
0.476028 0.882509 0.082500
0.606450 0.914753 0.082500
0.784257 0.934292 0.082500
1.000000 0.944939 0.082500
0.000000 0.770595 0.082500
0.032122 0.773937 0.082500
0.065708 0.784257 0.082500
0.098812 0.799439 0.082500
0.135221 0.820213 0.082500
0.174929 0.845396 0.082500
0.221768 0.870508 0.082500
0.280176 0.895888 0.082500
0.355175 0.919107 0.082500
0.454363 0.939836 0.082500
0.589802 0.957119 0.082500
0.773937 0.967878 0.082500
1.000000 0.973136 0.082500
0.000000 1.000000 0.082500
0.026864 1.000000 0.082500
0.055061 1.000000 0.082500
0.086364 1.000000 0.082500
0.120911 1.000000 0.082500
0.161031 1.000000 0.082500
0.209712 1.000000 0.082500
0.269938 1.000000 0.082500
0.347134 1.000000 0.082500
0.446944 1.000000 0.082500
0.584814 1.000000 0.082500
0.770595 1.000000 0.082500
1.000000 1.000000 0.082500
0.000000 0.000000 0.165000
0.229405 0.000000 0.165000
0.415186 0.000000 0.165000
0.553056 0.000000 0.165000
0.652866 0.000000 0.165000
0.730062 0.000000 0.165000
0.790288 0.000000 0.165000
0.838969 0.000000 0.165000
0.879089 0.000000 0.165000
0.913636 0.000000 0.165000
0.944939 0.000000 0.165000
0.973136 0.000000 0.165000
1.000000 0.000000 0.165000
0.000000 0.026864 0.165000
0.226064 0.032122 0.165000
0.410198 0.042881 0.165000
0.545637 0.060164 0.165000
0.644825 0.080893 0.165000
0.719824 0.104112 0.165000
0.778232 0.129493 0.165000
0.825071 0.154605 0.165000
0.864779 0.179787 0.165000
0.901188 0.200561 0.165000
0.934292 0.215744 0.165000
0.967878 0.226064 0.165000
1.000000 0.229405 0.165000
0.000000 0.055061 0.165000
0.215744 0.065708 0.165000
0.393550 0.085247 0.165000
0.523972 0.117491 0.165000
0.619563 0.155004 0.165000
0.691401 0.197261 0.165000
0.747679 0.242886 0.165000
0.793676 0.287811 0.165000
0.834103 0.332370 0.165000
0.874804 0.367463 0.165000
0.914753 0.393550 0.165000
0.957119 0.410198 0.165000
1.000000 0.415186 0.165000
0.000000 0.086364 0.165000
0.200561 0.098812 0.165000
0.367463 0.125196 0.165000
0.490614 0.169278 0.165000
0.581139 0.220108 0.165000
0.646706 0.276568 0.165000
0.697866 0.336355 0.165000
0.742804 0.392116 0.165000
0.783522 0.446384 0.165000
0.830722 0.490614 0.165000
0.882509 0.523972 0.165000
0.939836 0.545637 0.165000
1.000000 0.553056 0.165000
0.000000 0.120911 0.165000
0.179787 0.135221 0.165000
0.332370 0.165897 0.165000
0.446384 0.216478 0.165000
0.533088 0.277391 0.165000
0.590946 0.343361 0.165000
0.636389 0.412431 0.165000
0.680071 0.475082 0.165000
0.722609 0.533088 0.165000
0.779892 0.581139 0.165000
0.844996 0.619563 0.165000
0.919107 0.644825 0.165000
1.000000 0.652866 0.165000
0.000000 0.161031 0.165000
0.154605 0.174929 0.165000
0.287811 0.206324 0.165000
0.392116 0.257196 0.165000
0.475082 0.319929 0.165000
0.527694 0.388095 0.165000
0.569966 0.459443 0.165000
0.611905 0.527694 0.165000
0.656639 0.590946 0.165000
0.723432 0.646706 0.165000
0.802739 0.691401 0.165000
0.895888 0.719824 0.165000
1.000000 0.730062 0.165000
0.000000 0.209712 0.165000
0.129493 0.221768 0.165000
0.242886 0.252321 0.165000
0.336355 0.302134 0.165000
0.412431 0.363611 0.165000
0.459443 0.430034 0.165000
0.500000 0.500000 0.165000
0.540557 0.569966 0.165000
0.587569 0.636389 0.165000
0.663645 0.697866 0.165000
0.757114 0.747679 0.165000
0.870508 0.778232 0.165000
1.000000 0.790288 0.165000
0.000000 0.269938 0.165000
0.104112 0.280176 0.165000
0.197261 0.308599 0.165000
0.276568 0.353294 0.165000
0.343361 0.409054 0.165000
0.388095 0.472306 0.165000
0.430034 0.540557 0.165000
0.472306 0.611905 0.165000
0.524918 0.680071 0.165000
0.607884 0.742804 0.165000
0.712189 0.793676 0.165000
0.845396 0.825071 0.165000
1.000000 0.838969 0.165000
0.000000 0.347134 0.165000
0.080893 0.355175 0.165000
0.155004 0.380437 0.165000
0.220108 0.418861 0.165000
0.277391 0.466912 0.165000
0.319929 0.524918 0.165000
0.363611 0.587569 0.165000
0.409054 0.656639 0.165000
0.466912 0.722609 0.165000
0.553616 0.783522 0.165000
0.667630 0.834103 0.165000
0.820213 0.864779 0.165000
1.000000 0.879089 0.165000
0.000000 0.446944 0.165000
0.060164 0.454363 0.165000
0.117491 0.476028 0.165000
0.169278 0.509386 0.165000
0.216478 0.553616 0.165000
0.257196 0.607884 0.165000
0.302134 0.663645 0.165000
0.353294 0.723432 0.165000
0.418861 0.779892 0.165000
0.509386 0.830722 0.165000
0.632537 0.874804 0.165000
0.799439 0.901188 0.165000
1.000000 0.913636 0.165000
0.000000 0.584814 0.165000
0.042881 0.589802 0.165000
0.085247 0.606450 0.165000
0.125196 0.632537 0.165000
0.165897 0.667630 0.165000
0.206324 0.712189 0.165000
0.252321 0.757114 0.165000
0.308599 0.802739 0.165000
0.380437 0.844996 0.165000
0.476028 0.882509 0.165000
0.606450 0.914753 0.165000
0.784257 0.934292 0.165000
1.000000 0.944939 0.165000
0.000000 0.770595 0.165000
0.032122 0.773937 0.165000
0.065708 0.784257 0.165000
0.098812 0.799439 0.165000
0.135221 0.820213 0.165000
0.174929 0.845396 0.165000
0.221768 0.870508 0.165000
0.280176 0.895888 0.165000
0.355175 0.919107 0.165000
0.454363 0.939836 0.165000
0.589802 0.957119 0.165000
0.773937 0.967878 0.165000
1.000000 0.973136 0.165000
0.000000 1.000000 0.165000
0.026864 1.000000 0.165000
0.055061 1.000000 0.165000
0.086364 1.000000 0.165000
0.120911 1.000000 0.165000
0.161031 1.000000 0.165000
0.209712 1.000000 0.165000
0.269938 1.000000 0.165000
0.347134 1.000000 0.165000
0.446944 1.000000 0.165000
0.584814 1.000000 0.165000
0.770595 1.000000 0.165000
1.000000 1.000000 0.165000
0.000000 0.000000 0.247500
0.229405 0.000000 0.247500
0.415186 0.000000 0.247500
0.553056 0.000000 0.247500
0.652866 0.000000 0.247500
0.730062 0.000000 0.247500
0.790288 0.000000 0.247500
0.838969 0.000000 0.247500
0.879089 0.000000 0.247500
0.913636 0.000000 0.247500
0.944939 0.000000 0.247500
0.973136 0.000000 0.247500
1.000000 0.000000 0.247500
0.000000 0.026864 0.247500
0.226064 0.032122 0.247500
0.410198 0.042881 0.247500
0.545637 0.060164 0.247500
0.644825 0.080893 0.247500
0.719824 0.104112 0.247500
0.778232 0.129493 0.247500
0.825071 0.154605 0.247500
0.864779 0.179787 0.247500
0.901188 0.200561 0.247500
0.934292 0.215744 0.247500
0.967878 0.226064 0.247500
1.000000 0.229405 0.247500
0.000000 0.055061 0.247500
0.215744 0.065708 0.247500
0.393550 0.085247 0.247500
0.523972 0.117491 0.247500
0.619563 0.155004 0.247500
0.691401 0.197261 0.247500
0.747679 0.242886 0.247500
0.793676 0.287811 0.247500
0.834103 0.332370 0.247500
0.874804 0.367463 0.247500
0.914753 0.393550 0.247500
0.957119 0.410198 0.247500
1.000000 0.415186 0.247500
0.000000 0.086364 0.247500
0.200561 0.098812 0.247500
0.367463 0.125196 0.247500
0.490614 0.169278 0.247500
0.581139 0.220108 0.247500
0.646706 0.276568 0.247500
0.697866 0.336355 0.247500
0.742804 0.392116 0.247500
0.783522 0.446384 0.247500
0.830722 0.490614 0.247500
0.882509 0.523972 0.247500
0.939836 0.545637 0.247500
1.000000 0.553056 0.247500
0.000000 0.120911 0.247500
0.179787 0.135221 0.247500
0.332370 0.165897 0.247500
0.446384 0.216478 0.247500
0.533088 0.277391 0.247500
0.590946 0.343361 0.247500
0.636389 0.412431 0.247500
0.680071 0.475082 0.247500
0.722609 0.533088 0.247500
0.779892 0.581139 0.247500
0.844996 0.619563 0.247500
0.919107 0.644825 0.247500
1.000000 0.652866 0.247500
0.000000 0.161031 0.247500
0.154605 0.174929 0.247500
0.287811 0.206324 0.247500
0.392116 0.257196 0.247500
0.475082 0.319929 0.247500
0.527694 0.388095 0.247500
0.569966 0.459443 0.247500
0.611905 0.527694 0.247500
0.656639 0.590946 0.247500
0.723432 0.646706 0.247500
0.802739 0.691401 0.247500
0.895888 0.719824 0.247500
1.000000 0.730062 0.247500
0.000000 0.209712 0.247500
0.129493 0.221768 0.247500
0.242886 0.252321 0.247500
0.336355 0.302134 0.247500
0.412431 0.363611 0.247500
0.459443 0.430034 0.247500
0.500000 0.500000 0.247500
0.540557 0.569966 0.247500
0.587569 0.636389 0.247500
0.663645 0.697866 0.247500
0.757114 0.747679 0.247500
0.870508 0.778232 0.247500
1.000000 0.790288 0.247500
0.000000 0.269938 0.247500
0.104112 0.280176 0.247500
0.197261 0.308599 0.247500
0.276568 0.353294 0.247500
0.343361 0.409054 0.247500
0.388095 0.472306 0.247500
0.430034 0.540557 0.247500
0.472306 0.611905 0.247500
0.524918 0.680071 0.247500
0.607884 0.742804 0.247500
0.712189 0.793676 0.247500
0.845396 0.825071 0.247500
1.000000 0.838969 0.247500
0.000000 0.347134 0.247500
0.080893 0.355175 0.247500
0.155004 0.380437 0.247500
0.220108 0.418861 0.247500
0.277391 0.466912 0.247500
0.319929 0.524918 0.247500
0.363611 0.587569 0.247500
0.409054 0.656639 0.247500
0.466912 0.722609 0.247500
0.553616 0.783522 0.247500
0.667630 0.834103 0.247500
0.820213 0.864779 0.247500
1.000000 0.879089 0.247500
0.000000 0.446944 0.247500
0.060164 0.454363 0.247500
0.117491 0.476028 0.247500
0.169278 0.509386 0.247500
0.216478 0.553616 0.247500
0.257196 0.607884 0.247500
0.302134 0.663645 0.247500
0.353294 0.723432 0.247500
0.418861 0.779892 0.247500
0.509386 0.830722 0.247500
0.632537 0.874804 0.247500
0.799439 0.901188 0.247500
1.000000 0.913636 0.247500
0.000000 0.584814 0.247500
0.042881 0.589802 0.247500
0.085247 0.606450 0.247500
0.125196 0.632537 0.247500
0.165897 0.667630 0.247500
0.206324 0.712189 0.247500
0.252321 0.757114 0.247500
0.308599 0.802739 0.247500
0.380437 0.844996 0.247500
0.476028 0.882509 0.247500
0.606450 0.914753 0.247500
0.784257 0.934292 0.247500
1.000000 0.944939 0.247500
0.000000 0.770595 0.247500
0.032122 0.773937 0.247500
0.065708 0.784257 0.247500
0.098812 0.799439 0.247500
0.135221 0.820213 0.247500
0.174929 0.845396 0.247500
0.221768 0.870508 0.247500
0.280176 0.895888 0.247500
0.355175 0.919107 0.247500
0.454363 0.939836 0.247500
0.589802 0.957119 0.247500
0.773937 0.967878 0.247500
1.000000 0.973136 0.247500
0.000000 1.000000 0.247500
0.026864 1.000000 0.247500
0.055061 1.000000 0.247500
0.086364 1.000000 0.247500
0.120911 1.000000 0.247500
0.161031 1.000000 0.247500
0.209712 1.000000 0.247500
0.269938 1.000000 0.247500
0.347134 1.000000 0.247500
0.446944 1.000000 0.247500
0.584814 1.000000 0.247500
0.770595 1.000000 0.247500
1.000000 1.000000 0.247500
0.000000 0.000000 0.330000
0.229405 0.000000 0.330000
0.415186 0.000000 0.330000
0.553056 0.000000 0.330000
0.652866 0.000000 0.330000
0.730062 0.000000 0.330000
0.790288 0.000000 0.330000
0.838969 0.000000 0.330000
0.879089 0.000000 0.330000
0.913636 0.000000 0.330000
0.944939 0.000000 0.330000
0.973136 0.000000 0.330000
1.000000 0.000000 0.330000
0.000000 0.026864 0.330000
0.226064 0.032122 0.330000
0.410198 0.042881 0.330000
0.545637 0.060164 0.330000
0.644825 0.080893 0.330000
0.719824 0.104112 0.330000
0.778232 0.129493 0.330000
0.825071 0.154605 0.330000
0.864779 0.179787 0.330000
0.901188 0.200561 0.330000
0.934292 0.215744 0.330000
0.967878 0.226064 0.330000
1.000000 0.229405 0.330000
0.000000 0.055061 0.330000
0.215744 0.065708 0.330000
0.393550 0.085247 0.330000
0.523972 0.117491 0.330000
0.619563 0.155004 0.330000
0.691401 0.197261 0.330000
0.747679 0.242886 0.330000
0.793676 0.287811 0.330000
0.834103 0.332370 0.330000
0.874804 0.367463 0.330000
0.914753 0.393550 0.330000
0.957119 0.410198 0.330000
1.000000 0.415186 0.330000
0.000000 0.086364 0.330000
0.200561 0.098812 0.330000
0.367463 0.125196 0.330000
0.490614 0.169278 0.330000
0.581139 0.220108 0.330000
0.646706 0.276568 0.330000
0.697866 0.336355 0.330000
0.742804 0.392116 0.330000
0.783522 0.446384 0.330000
0.830722 0.490614 0.330000
0.882509 0.523972 0.330000
0.939836 0.545637 0.330000
1.000000 0.553056 0.330000
0.000000 0.120911 0.330000
0.179787 0.135221 0.330000
0.332370 0.165897 0.330000
0.446384 0.216478 0.330000
0.533088 0.277391 0.330000
0.590946 0.343361 0.330000
0.636389 0.412431 0.330000
0.680071 0.475082 0.330000
0.722609 0.533088 0.330000
0.779892 0.581139 0.330000
0.844996 0.619563 0.330000