# vtk DataFile Version 2.0
Mesh for Fierro
ASCII 
DATASET UNSTRUCTURED_GRID

POINTS 845 float
0.000000 0.000000 0.000000
0.539344 0.000000 0.000000
0.792005 0.000000 0.000000
0.851178 0.000000 0.000000
0.892684 0.000000 0.000000
0.920325 0.000000 0.000000
0.939562 0.000000 0.000000
0.952294 0.000000 0.000000
0.962255 0.000000 0.000000
0.970639 0.000000 0.000000
0.978817 0.000000 0.000000
0.988851 0.000000 0.000000
1.000000 0.000000 0.000000
0.000000 0.011149 0.000000
0.537615 0.018989 0.000000
0.768596 0.068682 0.000000
0.831426 0.122863 0.000000
0.871451 0.198902 0.000000
0.891283 0.270319 0.000000
0.906278 0.341742 0.000000
0.919073 0.410240 0.000000
0.931243 0.468081 0.000000
0.945990 0.506939 0.000000
0.962131 0.531544 0.000000
0.981011 0.537615 0.000000
1.000000 0.539344 0.000000
0.000000 0.021183 0.000000
0.531544 0.037869 0.000000
0.732694 0.121770 0.000000
0.808225 0.213016 0.000000
0.825645 0.343012 0.000000
0.841708 0.433361 0.000000
0.843347 0.522236 0.000000
0.838373 0.589819 0.000000
0.834771 0.645238 0.000000
0.847930 0.691882 0.000000
0.878230 0.732694 0.000000
0.931318 0.768596 0.000000
1.000000 0.792005 0.000000
0.000000 0.029361 0.000000
0.506939 0.054010 0.000000
0.691882 0.152070 0.000000
0.766328 0.264408 0.000000
0.759883 0.395175 0.000000
0.765874 0.489766 0.000000
0.739795 0.575090 0.000000
0.719843 0.646034 0.000000
0.710032 0.710889 0.000000
0.735592 0.766328 0.000000
0.786984 0.808225 0.000000
0.877138 0.831426 0.000000
1.000000 0.851178 0.000000
0.000000 0.037745 0.000000
0.468081 0.068757 0.000000
0.645238 0.165229 0.000000
0.710889 0.289968 0.000000
0.694902 0.414086 0.000000
0.681077 0.510892 0.000000
0.635168 0.581625 0.000000
0.610402 0.643367 0.000000
0.585914 0.694902 0.000000
0.604825 0.759883 0.000000
0.656988 0.825644 0.000000
0.801098 0.871451 0.000000
1.000000 0.892684 0.000000
0.000000 0.047706 0.000000
0.410240 0.080927 0.000000
0.589819 0.161627 0.000000
0.646034 0.280157 0.000000
0.643367 0.389598 0.000000
0.613911 0.479145 0.000000
0.563958 0.546306 0.000000
0.520855 0.613911 0.000000
0.489108 0.681077 0.000000
0.510234 0.765874 0.000000
0.566639 0.841708 0.000000
0.729682 0.891283 0.000000
1.000000 0.920325 0.000000
0.000000 0.060438 0.000000
0.341742 0.093722 0.000000
0.522236 0.156653 0.000000
0.575090 0.260205 0.000000
0.581625 0.364832 0.000000
0.546306 0.436042 0.000000
0.500000 0.500000 0.000000
0.453694 0.563958 0.000000
0.418375 0.635168 0.000000
0.424910 0.739795 0.000000
0.477764 0.843347 0.000000
0.658259 0.906278 0.000000
1.000000 0.939562 0.000000
0.000000 0.079675 0.000000
0.270319 0.108718 0.000000
0.433361 0.158292 0.000000
0.489766 0.234126 0.000000
0.510892 0.318923 0.000000
0.479145 0.386089 0.000000
0.436042 0.453694 0.000000
0.386089 0.520855 0.000000
0.356633 0.610402 0.000000
0.353966 0.719843 0.000000
0.410181 0.838373 0.000000
0.589761 0.919073 0.000000
1.000000 0.952294 0.000000
0.000000 0.107316 0.000000
0.198902 0.128550 0.000000
0.343012 0.174355 0.000000
0.395175 0.240116 0.000000
0.414086 0.305098 0.000000
0.389598 0.356633 0.000000
0.364832 0.418375 0.000000
0.318923 0.489108 0.000000
0.305098 0.585914 0.000000
0.289112 0.710032 0.000000
0.354762 0.834771 0.000000
0.531920 0.931243 0.000000
1.000000 0.962255 0.000000
0.000000 0.148823 0.000000
0.122863 0.168574 0.000000
0.213016 0.191775 0.000000
0.264408 0.233672 0.000000
0.289968 0.289112 0.000000
0.280157 0.353966 0.000000
0.260205 0.424910 0.000000
0.234126 0.510234 0.000000
0.240116 0.604825 0.000000
0.233672 0.735592 0.000000
0.308118 0.847930 0.000000
0.493062 0.945990 0.000000
1.000000 0.970639 0.000000
0.000000 0.207995 0.000000
0.068682 0.231405 0.000000
0.121770 0.267306 0.000000
0.152070 0.308118 0.000000
0.165229 0.354762 0.000000
0.161627 0.410181 0.000000
0.156653 0.477764 0.000000
0.158292 0.566639 0.000000
0.174355 0.656988 0.000000
0.191775 0.786984 0.000000
0.267306 0.878230 0.000000
0.468457 0.962131 0.000000
1.000000 0.978817 0.000000
0.000000 0.460656 0.000000
0.018989 0.462385 0.000000
0.037869 0.468457 0.000000
0.054010 0.493062 0.000000
0.068757 0.531920 0.000000
0.080927 0.589761 0.000000
0.093722 0.658260 0.000000
0.108717 0.729682 0.000000
0.128549 0.801098 0.000000
0.168574 0.877138 0.000000
0.231404 0.931318 0.000000
0.462385 0.981011 0.000000
1.000000 0.988851 0.000000
0.000000 1.000000 0.000000
0.011149 1.000000 0.000000
0.021183 1.000000 0.000000
0.029361 1.000000 0.000000
0.037745 1.000000 0.000000
0.047706 1.000000 0.000000
0.060438 1.000000 0.000000
0.079675 1.000000 0.000000
0.107316 1.000000 0.000000
0.148822 1.000000 0.000000
0.207995 1.000000 0.000000
0.460656 1.000000 0.000000
1.000000 1.000000 0.000000
0.000000 0.000000 0.082500
0.539344 0.000000 0.082500
0.792005 0.000000 0.082500
0.851178 0.000000 0.082500
0.892684 0.000000 0.082500
0.920325 0.000000 0.082500
0.939562 0.000000 0.082500
0.952294 0.000000 0.082500
0.962255 0.000000 0.082500
0.970639 0.000000 0.082500
0.978817 0.000000 0.082500
0.988851 0.000000 0.082500
1.000000 0.000000 0.082500
0.000000 0.011149 0.082500
0.537615 0.018989 0.082500
0.768596 0.068682 0.082500
0.831426 0.122863 0.082500
0.871451 0.198902 0.082500
0.891283 0.270319 0.082500
0.906278 0.341742 0.082500
0.919073 0.410240 0.082500
0.931243 0.468081 0.082500
0.945990 0.506939 0.082500
0.962131 0.531544 0.082500
0.981011 0.537615 0.082500
1.000000 0.539344 0.082500
0.000000 0.021183 0.082500
0.531544 0.037869 0.082500
0.732694 0.121770 0.082500
0.808225 0.213016 0.082500
0.825645 0.343012 0.082500
0.841708 0.433361 0.082500
0.843347 0.522236 0.082500
0.838373 0.589819 0.082500
0.834771 0.645238 0.082500
0.847930 0.691882 0.082500
0.878230 0.732694 0.082500
0.931318 0.768596 0.082500
1.000000 0.792005 0.082500
0.000000 0.029361 0.082500
0.506939 0.054010 0.082500
0.691882 0.152070 0.082500
0.766328 0.264408 0.082500
0.759883 0.395175 0.082500
0.765874 0.489766 0.082500
0.739795 0.575090 0.082500
0.719843 0.646034 0.082500
0.710032 0.710889 0.082500
0.735592 0.766328 0.082500
0.786984 0.808225 0.082500
0.877138 0.831426 0.082500
1.000000 0.851178 0.082500
0.000000 0.037745 0.082500
0.468081 0.068757 0.082500
0.645238 0.165229 0.082500
0.710889 0.289968 0.082500
0.694902 0.414086 0.082500
0.681077 0.510892 0.082500
0.635168 0.581625 0.082500
0.610402 0.643367 0.082500
0.585914 0.694902 0.082500
0.604825 0.759883 0.082500
0.656988 0.825644 0.082500
0.801098 0.871451 0.082500
1.000000 0.892684 0.082500
0.000000 0.047706 0.082500
0.410240 0.080927 0.082500
0.589819 0.161627 0.082500
0.646034 0.280157 0.082500
0.643367 0.389598 0.082500
0.613911 0.479145 0.082500
0.563958 0.546306 0.082500
0.520855 0.613911 0.082500
0.489108 0.681077 0.082500
0.510234 0.765874 0.082500
0.566639 0.841708 0.082500
0.729682 0.891283 0.082500
1.000000 0.920325 0.082500
0.000000 0.060438 0.082500
0.341742 0.093722 0.082500
0.522236 0.156653 0.082500
0.575090 0.260205 0.082500
0.581625 0.364832 0.082500
0.546306 0.436042 0.082500
0.500000 0.500000 0.082500
0.453694 0.563958 0.082500
0.418375 0.635168 0.082500
0.424910 0.739795 0.082500
0.477764 0.843347 0.082500
0.658259 0.906278 0.082500
1.000000 0.939562 0.082500
0.000000 0.079675 0.082500
0.270319 0.108718 0.082500
0.433361 0.158292 0.082500
0.489766 0.234126 0.082500
0.510892 0.318923 0.082500
0.479145 0.386089 0.082500
0.436042 0.453694 0.082500
0.386089 0.520855 0.082500
0.356633 0.610402 0.082500
0.353966 0.719843 0.082500
0.410181 0.838373 0.082500
0.589761 0.919073 0.082500
1.000000 0.952294 0.082500
0.000000 0.107316 0.082500
0.198902 0.128550 0.082500
0.343012 0.174355 0.082500
0.395175 0.240116 0.082500
0.414086 0.305098 0.082500
0.389598 0.356633 0.082500
0.364832 0.418375 0.082500
0.318923 0.489108 0.082500
0.305098 0.585914 0.082500
0.289112 0.710032 0.082500
0.354762 0.834771 0.082500
0.531920 0.931243 0.082500
1.000000 0.962255 0.082500
0.000000 0.148823 0.082500
0.122863 0.168574 0.082500
0.213016 0.191775 0.082500
0.264408 0.233672 0.082500
0.289968 0.289112 0.082500
0.280157 0.353966 0.082500
0.260205 0.424910 0.082500
0.234126 0.510234 0.082500
0.240116 0.604825 0.082500
0.233672 0.735592 0.082500
0.308118 0.847930 0.082500
0.493062 0.945990 0.082500
1.000000 0.970639 0.082500
0.000000 0.207995 0.082500
0.068682 0.231405 0.082500
0.121770 0.267306 0.082500
0.152070 0.308118 0.082500
0.165229 0.354762 0.082500
0.161627 0.410181 0.082500
0.156653 0.477764 0.082500
0.158292 0.566639 0.082500
0.174355 0.656988 0.082500
0.191775 0.786984 0.082500
0.267306 0.878230 0.082500
0.468457 0.962131 0.082500
1.000000 0.978817 0.082500
0.000000 0.460656 0.082500
0.018989 0.462385 0.082500
0.037869 0.468457 0.082500
0.054010 0.493062 0.082500
0.068757 0.531920 0.082500
0.080927 0.589761 0.082500
0.093722 0.658260 0.082500
0.108717 0.729682 0.082500
0.128549 0.801098 0.082500
0.168574 0.877138 0.082500
0.231404 0.931318 0.082500
0.462385 0.981011 0.082500
1.000000 0.988851 0.082500
0.000000 1.000000 0.082500
0.011149 1.000000 0.082500
0.021183 1.000000 0.082500
0.029361 1.000000 0.082500
0.037745 1.000000 0.082500
0.047706 1.000000 0.082500
0.060438 1.000000 0.082500
0.079675 1.000000 0.082500
0.107316 1.000000 0.082500
0.148822 1.000000 0.082500
0.207995 1.000000 0.082500
0.460656 1.000000 0.082500
1.000000 1.000000 0.082500
0.000000 0.000000 0.165000
0.539344 0.000000 0.165000
0.792005 0.000000 0.165000
0.851178 0.000000 0.165000
0.892684 0.000000 0.165000
0.920325 0.000000 0.165000
0.939562 0.000000 0.165000
0.952294 0.000000 0.165000
0.962255 0.000000 0.165000
0.970639 0.000000 0.165000
0.978817 0.000000 0.165000
0.988851 0.000000 0.165000
1.000000 0.000000 0.165000
0.000000 0.011149 0.165000
0.537615 0.018989 0.165000
0.768596 0.068682 0.165000
0.831426 0.122863 0.165000
0.871451 0.198902 0.165000
0.891283 0.270319 0.165000
0.906278 0.341742 0.165000
0.919073 0.410240 0.165000
0.931243 0.468081 0.165000
0.945990 0.506939 0.165000
0.962131 0.531544 0.165000
0.981011 0.537615 0.165000
1.000000 0.539344 0.165000
0.000000 0.021183 0.165000
0.531544 0.037869 0.165000
[...]
POINT_DATA 845 
VECTORS pos float 
0.000000 0.000000 0.000000
0.539344 0.000000 0.000000
0.792005 0.000000 0.000000
0.851178 0.000000 0.000000
0.892684 0.000000 0.000000
0.920325 0.000000 0.000000
0.939562 0.000000 0.000000
0.952294 0.000000 0.000000
0.962255 0.000000 0.000000
0.970639 0.000000 0.000000
0.978817 0.000000 0.000000
0.988851 0.000000 0.000000
1.000000 0.000000 0.000000
0.000000 0.011149 0.000000
0.537615 0.018989 0.000000
0.768596 0.068682 0.000000
0.831426 0.122863 0.000000
0.871451 0.198902 0.000000
0.891283 0.270319 0.000000
0.906278 0.341742 0.000000
0.919073 0.410240 0.000000
0.931243 0.468081 0.000000
0.945990 0.506939 0.000000
0.962131 0.531544 0.000000
0.981011 0.537615 0.000000
1.000000 0.539344 0.000000
0.000000 0.021183 0.000000
0.531544 0.037869 0.000000
0.732694 0.121770 0.000000
0.808225 0.213016 0.000000
0.825645 0.343012 0.000000
0.841708 0.433361 0.000000
0.843347 0.522236 0.000000
0.838373 0.589819 0.000000
0.834771 0.645238 0.000000
0.847930 0.691882 0.000000
0.878230 0.732694 0.000000
0.931318 0.768596 0.000000
1.000000 0.792005 0.000000
0.000000 0.029361 0.000000
0.506939 0.054010 0.000000
0.691882 0.152070 0.000000
0.766328 0.264408 0.000000
0.759883 0.395175 0.000000
0.765874 0.489766 0.000000
0.739795 0.575090 0.000000
0.719843 0.646034 0.000000
0.710032 0.710889 0.000000
0.735592 0.766328 0.000000
0.786984 0.808225 0.000000
0.877138 0.831426 0.000000
1.000000 0.851178 0.000000
0.000000 0.037745 0.000000
0.468081 0.068757 0.000000
0.645238 0.165229 0.000000
0.710889 0.289968 0.000000
0.694902 0.414086 0.000000
0.681077 0.510892 0.000000
0.635168 0.581625 0.000000
0.610402 0.643367 0.000000
0.585914 0.694902 0.000000
0.604825 0.759883 0.000000
0.656988 0.825644 0.000000
0.801098 0.871451 0.000000
1.000000 0.892684 0.000000
0.000000 0.047706 0.000000
0.410240 0.080927 0.000000
0.589819 0.161627 0.000000
0.646034 0.280157 0.000000
0.643367 0.389598 0.000000
0.613911 0.479145 0.000000
0.563958 0.546306 0.000000
0.520855 0.613911 0.000000
0.489108 0.681077 0.000000
0.510234 0.765874 0.000000
0.566639 0.841708 0.000000
0.729682 0.891283 0.000000
1.000000 0.920325 0.000000
0.000000 0.060438 0.000000
0.341742 0.093722 0.000000
0.522236 0.156653 0.000000
0.575090 0.260205 0.000000
0.581625 0.364832 0.000000
0.546306 0.436042 0.000000
0.500000 0.500000 0.000000
0.453694 0.563958 0.000000
0.418375 0.635168 0.000000
0.424910 0.739795 0.000000
0.477764 0.843347 0.000000
0.658259 0.906278 0.000000
1.000000 0.939562 0.000000
0.000000 0.079675 0.000000
0.270319 0.108718 0.000000
0.433361 0.158292 0.000000
0.489766 0.234126 0.000000
0.510892 0.318923 0.000000
0.479145 0.386089 0.000000
0.436042 0.453694 0.000000
0.386089 0.520855 0.000000
0.356633 0.610402 0.000000
0.353966 0.719843 0.000000
0.410181 0.838373 0.000000
0.589761 0.919073 0.000000
1.000000 0.952294 0.000000
0.000000 0.107316 0.000000
0.198902 0.128550 0.000000
0.343012 0.174355 0.000000
0.395175 0.240116 0.000000
0.414086 0.305098 0.000000
0.389598 0.356633 0.000000
0.364832 0.418375 0.000000
0.318923 0.489108 0.000000
0.305098 0.585914 0.000000
0.289112 0.710032 0.000000
0.354762 0.834771 0.000000
0.531920 0.931243 0.000000
1.000000 0.962255 0.000000
0.000000 0.148823 0.000000
0.122863 0.168574 0.000000
0.213016 0.191775 0.000000
0.264408 0.233672 0.000000
0.289968 0.289112 0.000000
0.280157 0.353966 0.000000
0.260205 0.424910 0.000000
0.234126 0.510234 0.000000
0.240116 0.604825 0.000000
0.233672 0.735592 0.000000
0.308118 0.847930 0.000000
0.493062 0.945990 0.000000
1.000000 0.970639 0.000000
0.000000 0.207995 0.000000
0.068682 0.231405 0.000000
0.121770 0.267306 0.000000
0.152070 0.308118 0.000000
0.165229 0.354762 0.000000
0.161627 0.410181 0.000000
0.156653 0.477764 0.000000
0.158292 0.566639 0.000000
0.174355 0.656988 0.000000
0.191775 0.786984 0.000000
0.267306 0.878230 0.000000
0.468457 0.962131 0.000000
1.000000 0.978817 0.000000
0.000000 0.460656 0.000000
0.018989 0.462385 0.000000
0.037869 0.468457 0.000000
0.054010 0.493062 0.000000
0.068757 0.531920 0.000000
0.080927 0.589761 0.000000
0.093722 0.658260 0.000000
0.108717 0.729682 0.000000
0.128549 0.801098 0.000000
0.168574 0.877138 0.000000
0.231404 0.931318 0.000000
0.462385 0.981011 0.000000
1.000000 0.988851 0.000000
0.000000 1.000000 0.000000
0.011149 1.000000 0.000000
0.021183 1.000000 0.000000
0.029361 1.000000 0.000000
0.037745 1.000000 0.000000
0.047706 1.000000 0.000000
0.060438 1.000000 0.000000
0.079675 1.000000 0.000000
0.107316 1.000000 0.000000
0.148822 1.000000 0.000000
0.207995 1.000000 0.000000
0.460656 1.000000 0.000000
1.000000 1.000000 0.000000
0.000000 0.000000 0.082500
0.539344 0.000000 0.082500
0.792005 0.000000 0.082500
0.851178 0.000000 0.082500
0.892684 0.000000 0.082500
0.920325 0.000000 0.082500
0.939562 0.000000 0.082500
0.952294 0.000000 0.082500
0.962255 0.000000 0.082500
0.970639 0.000000 0.082500
0.978817 0.000000 0.082500
0.988851 0.000000 0.082500
1.000000 0.000000 0.082500
0.000000 0.011149 0.082500
0.537615 0.018989 0.082500
0.768596 0.068682 0.082500
0.831426 0.122863 0.082500
0.871451 0.198902 0.082500
0.891283 0.270319 0.082500
0.906278 0.341742 0.082500
0.919073 0.410240 0.082500
0.931243 0.468081 0.082500
0.945990 0.506939 0.082500
0.962131 0.531544 0.082500
0.981011 0.537615 0.082500
1.000000 0.539344 0.082500
0.000000 0.021183 0.082500
0.531544 0.037869 0.082500
0.732694 0.121770 0.082500
0.808225 0.213016 0.082500
0.825645 0.343012 0.082500
0.841708 0.433361 0.082500
0.843347 0.522236 0.082500
0.838373 0.589819 0.082500
0.834771 0.645238 0.082500
0.847930 0.691882 0.082500
0.878230 0.732694 0.082500
0.931318 0.768596 0.082500
1.000000 0.792005 0.082500
0.000000 0.029361 0.082500
0.506939 0.054010 0.082500
0.691882 0.152070 0.082500
0.766328 0.264408 0.082500
0.759883 0.395175 0.082500
0.765874 0.489766 0.082500
0.739795 0.575090 0.082500
0.719843 0.646034 0.082500
0.710032 0.710889 0.082500
0.735592 0.766328 0.082500
0.786984 0.808225 0.082500
0.877138 0.831426 0.082500
1.000000 0.851178 0.082500
0.000000 0.037745 0.082500
0.468081 0.068757 0.082500
0.645238 0.165229 0.082500
0.710889 0.289968 0.082500
0.694902 0.414086 0.082500
0.681077 0.510892 0.082500
0.635168 0.581625 0.082500
0.610402 0.643367 0.082500
0.585914 0.694902 0.082500
0.604825 0.759883 0.082500
0.656988 0.825644 0.082500
0.801098 0.871451 0.082500
1.000000 0.892684 0.082500
0.000000 0.047706 0.082500
0.410240 0.080927 0.082500
0.589819 0.161627 0.082500
0.646034 0.280157 0.082500
0.643367 0.389598 0.082500
0.613911 0.479145 0.082500
0.563958 0.546306 0.082500
0.520855 0.613911 0.082500
0.489108 0.681077 0.082500
0.510234 0.765874 0.082500
0.566639 0.841708 0.082500
0.729682 0.891283 0.082500
1.000000 0.920325 0.082500
0.000000 0.060438 0.082500
0.341742 0.093722 0.082500
0.522236 0.156653 0.082500
0.575090 0.260205 0.082500
0.581625 0.364832 0.082500
0.546306 0.436042 0.082500
0.500000 0.500000 0.082500
0.453694 0.563958 0.082500
0.418375 0.635168 0.082500
0.424910 0.739795 0.082500
0.477764 0.843347 0.082500
0.658259 0.906278 0.082500
1.000000 0.939562 0.082500
0.000000 0.079675 0.082500
0.270319 0.108718 0.082500
0.433361 0.158292 0.082500
0.489766 0.234126 0.082500
0.510892 0.318923 0.082500
0.479145 0.386089 0.082500
0.436042 0.453694 0.082500
0.386089 0.520855 0.082500
0.356633 0.610402 0.082500
0.353966 0.719843 0.082500
0.410181 0.838373 0.082500
0.589761 0.919073 0.082500
1.000000 0.952294 0.082500
0.000000 0.107316 0.082500
0.198902 0.128550 0.082500
0.343012 0.174355 0.082500
0.395175 0.240116 0.082500
0.414086 0.305098 0.082500
0.389598 0.356633 0.082500
0.364832 0.418375 0.082500
0.318923 0.489108 0.082500
0.305098 0.585914 0.082500
0.289112 0.710032 0.082500
0.354762 0.834771 0.082500
0.531920 0.931243 0.082500
1.000000 0.962255 0.082500
0.000000 0.148823 0.082500
0.122863 0.168574 0.082500
0.213016 0.191775 0.082500
0.264408 0.233672 0.082500
0.289968 0.289112 0.082500
0.280157 0.353966 0.082500
0.260205 0.424910 0.082500
0.234126 0.510234 0.082500
0.240116 0.604825 0.082500
0.233672 0.735592 0.082500
0.308118 0.847930 0.082500
0.493062 0.945990 0.082500
1.000000 0.970639 0.082500
0.000000 0.207995 0.082500
0.068682 0.231405 0.082500
0.121770 0.267306 0.082500
0.152070 0.308118 0.082500
0.165229 0.354762 0.082500
0.161627 0.410181 0.082500
0.156653 0.477764 0.082500
0.158292 0.566639 0.082500
0.174355 0.656988 0.082500
0.191775 0.786984 0.082500
0.267306 0.878230 0.082500
0.468457 0.962131 0.082500
1.000000 0.978817 0.082500
0.000000 0.460656 0.082500
0.018989 0.462385 0.082500
0.037869 0.468457 0.082500
0.054010 0.493062 0.082500
0.068757 0.531920 0.082500
0.080927 0.589761 0.082500
0.093722 0.658260 0.082500
0.108717 0.729682 0.082500
0.128549 0.801098 0.082500
0.168574 0.877138 0.082500
0.231404 0.931318 0.082500
0.462385 0.981011 0.082500
1.000000 0.988851 0.082500
0.000000 1.000000 0.082500
0.011149 1.000000 0.082500
0.021183 1.000000 0.082500
0.029361 1.000000 0.082500
0.037745 1.000000 0.082500
0.047706 1.000000 0.082500
0.060438 1.000000 0.082500
0.079675 1.000000 0.082500
0.107316 1.000000 0.082500
0.148822 1.000000 0.082500
0.207995 1.000000 0.082500
0.460656 1.000000 0.082500
1.000000 1.000000 0.082500
0.000000 0.000000 0.165000
0.539344 0.000000 0.165000
0.792005 0.000000 0.165000
0.851178 0.000000 0.165000
0.892684 0.000000 0.165000
0.920325 0.000000 0.165000
0.939562 0.000000 0.165000
0.952294 0.000000 0.165000
0.962255 0.000000 0.165000
0.970639 0.000000 0.165000
0.978817 0.000000 0.165000
0.988851 0.000000 0.165000
1.000000 0.000000 0.165000
0.000000 0.011149 0.165000
0.537615 0.018989 0.165000
0.768596 0.068682 0.165000
0.831426 0.122863 0.165000
0.871451 0.198902 0.165000
0.891283 0.270319 0.165000
0.906278 0.341742 0.165000
0.919073 0.410240 0.165000
0.931243 0.468081 0.165000
0.945990 0.506939 0.165000
0.962131 0.531544 0.165000
0.981011 0.537615 0.165000
1.000000 0.539344 0.165000
0.000000 0.021183 0.165000
0.531544 0.037869 0.165000
0.732694 0.121770 0.165000
0.808225 0.213016 0.165000
0.825645 0.343012 0.165000
0.841708 0.433361 0.165000
0.843347 0.522236 0.165000
0.838373 0.589819 0.165000
0.834771 0.645238 0.165000
0.847930 0.691882 0.165000
0.878230 0.732694 0.165000
0.931318 0.768596 0.165000
1.000000 0.792005 0.165000
0.000000 0.029361 0.165000
0.506939 0.054010 0.165000
0.691882 0.152070 0.165000
0.766328 0.264408 0.165000
0.759883 0.395175 0.165000
0.765874 0.489766 0.165000
0.739795 0.575090 0.165000
0.719843 0.646034 0.165000
0.710032 0.710889 0.165000
0.735592 0.766328 0.165000
0.786984 0.808225 0.165000
0.877138 0.831426 0.165000
1.000000 0.851178 0.165000
0.000000 0.037745 0.165000
0.468081 0.068757 0.165000
0.645238 0.165229 0.165000
0.710889 0.289968 0.165000
0.694902 0.414086 0.165000
0.681077 0.510892 0.165000
0.635168 0.581625 0.165000
0.610402 0.643367 0.165000
0.585914 0.694902 0.165000
0.604825 0.759883 0.165000
0.656988 0.825644 0.165000
0.801098 0.871451 0.165000
1.000000 0.892684 0.165000
0.000000 0.047706 0.165000
0.410240 0.080927 0.165000
0.589819 0.161627 0.165000
0.646034 0.280157 0.165000
0.643367 0.389598 0.165000
0.613911 0.479145 0.165000
0.563958 0.546306 0.165000
0.520855 0.613911 0.165000
0.489108 0.681077 0.165000
0.510234 0.765874 0.165000
0.566639 0.841708 0.165000
0.729682 0.891283 0.165000
1.000000 0.920325 0.165000
0.000000 0.060438 0.165000
0.341742 0.093722 0.165000
0.522236 0.156653 0.165000
0.575090 0.260205 0.165000
0.581625 0.364832 0.165000
0.546306 0.436042 0.165000
0.500000 0.500000 0.165000
0.453694 0.563958 0.165000
0.418375 0.635168 0.165000
0.424910 0.739795 0.165000
0.477764 0.843347 0.165000
0.658259 0.906278 0.165000
1.000000 0.939562 0.165000
0.000000 0.079675 0.165000
0.270319 0.108718 0.165000
0.433361 0.158292 0.165000
0.489766 0.234126 0.165000
0.510892 0.318923 0.165000
0.479145 0.386089 0.165000
0.436042 0.453694 0.165000
0.386089 0.520855 0.165000
0.356633 0.610402 0.165000
0.353966 0.719843 0.165000
0.410181 0.838373 0.165000
0.589761 0.919073 0.165000
1.000000 0.952294 0.165000
0.000000 0.107316 0.165000
0.198902 0.128550 0.165000
0.343012 0.174355 0.165000
0.395175 0.240116 0.165000
0.414086 0.305098 0.165000
0.389598 0.356633 0.165000
0.364832 0.418375 0.165000
0.318923 0.489108 0.165000
0.305098 0.585914 0.165000
0.289112 0.710032 0.165000
0.354762 0.834771 0.165000
0.531920 0.931243 0.165000
1.000000 0.962255 0.165000
0.000000 0.148823 0.165000
0.122863 0.168574 0.165000
0.213016 0.191775 0.165000
0.264408 0.233672 0.165000
0.289968 0.289112 0.165000
0.280157 0.353966 0.165000
0.260205 0.424910 0.165000
0.234126 0.510234 0.165000
0.240116 0.604825 0.165000
0.233672 0.735592 0.165000
0.308118 0.847930 0.165000
0.493062 0.945990 0.165000
1.000000 0.970639 0.165000
0.000000 0.207995 0.165000
0.068682 0.231405 0.165000
0.121770 0.267306 0.165000
0.152070 0.308118 0.165000
0.165229 0.354762 0.165000
0.161627 0.410181 0.165000
0.156653 0.477764 0.165000
0.158292 0.566639 0.165000
0.174355 0.656988 0.165000
0.191775 0.786984 0.165000
0.267306 0.878230 0.165000
0.468457 0.962131 0.165000
1.000000 0.978817 0.165000
0.000000 0.460656 0.165000
0.018989 0.462385 0.165000
0.037869 0.468457 0.165000
0.054010 0.493062 0.165000
0.068757 0.531920 0.165000
0.080927 0.589761 0.165000
0.093722 0.658260 0.165000
0.108717 0.729682 0.165000
0.128549 0.801098 0.165000
0.168574 0.877138 0.165000
0.231404 0.931318 0.165000
0.462385 0.981011 0.165000
1.000000 0.988851 0.165000
0.000000 1.000000 0.165000
0.011149 1.000000 0.165000
0.021183 1.000000 0.165000
0.029361 1.000000 0.165000
0.037745 1.000000 0.165000
0.047706 1.000000 0.165000
0.060438 1.000000 0.165000
0.079675 1.000000 0.165000
0.107316 1.000000 0.165000
0.148822 1.000000 0.165000
0.207995 1.000000 0.165000
0.460656 1.000000 0.165000
1.000000 1.000000 0.165000
0.000000 0.000000 0.247500
0.539344 0.000000 0.247500
0.792005 0.000000 0.247500
0.851178 0.000000 0.247500
0.892684 0.000000 0.247500
0.920325 0.000000 0.247500
0.939562 0.000000 0.247500
0.952294 0.000000 0.247500
0.962255 0.000000 0.247500
0.970639 0.000000 0.247500
0.978817 0.000000 0.247500
0.988851 0.000000 0.247500
1.000000 0.000000 0.247500
0.000000 0.011149 0.247500
0.537615 0.018989 0.247500
0.768596 0.068682 0.247500
0.831426 0.122863 0.247500
0.871451 0.198902 0.247500
0.891283 0.270319 0.247500
0.906278 0.341742 0.247500
0.919073 0.410240 0.247500
0.931243 0.468081 0.247500
0.945990 0.506939 0.247500
0.962131 0.531544 0.247500
0.981011 0.537615 0.247500
1.000000 0.539344 0.247500
0.000000 0.021183 0.247500
0.531544 0.037869 0.247500
0.732694 0.121770 0.247500
0.808225 0.213016 0.247500
0.825645 0.343012 0.247500
0.841708 0.433361 0.247500
0.843347 0.522236 0.247500
0.838373 0.589819 0.247500
0.834771 0.645238 0.247500
0.847930 0.691882 0.247500
0.878230 0.732694 0.247500
0.931318 0.768596 0.247500
1.000000 0.792005 0.247500
0.000000 0.029361 0.247500
0.506939 0.054010 0.247500
0.691882 0.152070 0.247500
0.766328 0.264408 0.247500
0.759883 0.395175 0.247500
0.765874 0.489766 0.247500
0.739795 0.575090 0.247500
0.719843 0.646034 0.247500
0.710032 0.710889 0.247500
0.735592 0.766328 0.247500
0.786984 0.808225 0.247500
0.877138 0.831426 0.247500
1.000000 0.851178 0.247500
0.000000 0.037745 0.247500
0.468081 0.068757 0.247500
0.645238 0.165229 0.247500
0.710889 0.289968 0.247500
0.694902 0.414086 0.247500
0.681077 0.510892 0.247500
0.635168 0.581625 0.247500
0.610402 0.643367 0.247500
0.585914 0.694902 0.247500
0.604825 0.759883 0.247500
0.656988 0.825644 0.247500
0.801098 0.871451 0.247500
1.000000 0.892684 0.247500
0.000000 0.047706 0.247500
0.410240 0.080927 0.247500
0.589819 0.161627 0.247500
0.646034 0.280157 0.247500
0.643367 0.389598 0.247500
0.613911 0.479145 0.247500
0.563958 0.546306 0.247500
0.520855 0.613911 0.247500
0.489108 0.681077 0.247500
0.510234 0.765874 0.247500
0.566639 0.841708 0.247500
0.729682 0.891283 0.247500
1.000000 0.920325 0.247500
0.000000 0.060438 0.247500
0.341742 0.093722 0.247500
0.522236 0.156653 0.247500
0.575090 0.260205 0.247500
0.581625 0.364832 0.247500
0.546306 0.436042 0.247500
0.500000 0.500000 0.247500
0.453694 0.563958 0.247500
0.418375 0.635168 0.247500
0.424910 0.739795 0.247500
0.477764 0.843347 0.247500
0.658259 0.906278 0.247500
1.000000 0.939562 0.247500
0.000000 0.079675 0.247500
0.270319 0.108718 0.247500
0.433361 0.158292 0.247500
0.489766 0.234126 0.247500
0.510892 0.318923 0.247500
0.479145 0.386089 0.247500
0.436042 0.453694 0.247500
0.386089 0.520855 0.247500
0.356633 0.610402 0.247500
0.353966 0.719843 0.247500
0.410181 0.838373 0.247500
0.589761 0.919073 0.247500
1.000000 0.952294 0.247500
0.000000 0.107316 0.247500
0.198902 0.128550 0.247500
0.343012 0.174355 0.247500
0.395175 0.240116 0.247500
0.414086 0.305098 0.247500
0.389598 0.356633 0.247500
0.364832 0.418375 0.247500
0.318923 0.489108 0.247500
0.305098 0.585914 0.247500
0.289112 0.710032 0.247500
0.354762 0.834771 0.247500
0.531920 0.931243 0.247500
1.000000 0.962255 0.247500
0.000000 0.148823 0.247500
0.122863 0.168574 0.247500
0.213016 0.191775 0.247500
0.264408 0.233672 0.247500
0.289968 0.289112 0.247500
0.280157 0.353966 0.247500
0.260205 0.424910 0.247500
0.234126 0.510234 0.247500
0.240116 0.604825 0.247500
0.233672 0.735592 0.247500
0.308118 0.847930 0.247500
0.493062 0.945990 0.247500
1.000000 0.970639 0.247500
0.000000 0.207995 0.247500
0.068682 0.231405 0.247500
0.121770 0.267306 0.247500
0.152070 0.308118 0.247500
0.165229 0.354762 0.247500
0.161627 0.410181 0.247500
0.156653 0.477764 0.247500
0.158292 0.566639 0.247500
0.174355 0.656988 0.247500
0.191775 0.786984 0.247500
0.267306 0.878230 0.247500
0.468457 0.962131 0.247500
1.000000 0.978817 0.247500
0.000000 0.460656 0.247500
0.018989 0.462385 0.247500
0.037869 0.468457 0.247500
0.054010 0.493062 0.247500
0.068757 0.531920 0.247500
0.080927 0.589761 0.247500
0.093722 0.658260 0.247500
0.108717 0.729682 0.247500
0.128549 0.801098 0.247500
0.168574 0.877138 0.247500
0.231404 0.931318 0.247500
0.462385 0.981011 0.247500
1.000000 0.988851 0.247500
0.000000 1.000000 0.247500
0.011149 1.000000 0.247500
0.021183 1.000000 0.247500
0.029361 1.000000 0.247500
0.037745 1.000000 0.247500
0.047706 1.000000 0.247500
0.060438 1.000000 0.247500
0.079675 1.000000 0.247500
0.107316 1.000000 0.247500
0.148822 1.000000 0.247500
0.207995 1.000000 0.247500
0.460656 1.000000 0.247500
1.000000 1.000000 0.247500
0.000000 0.000000 0.330000
0.539344 0.000000 0.330000
0.792005 0.000000 0.330000
0.851178 0.000000 0.330000
0.892684 0.000000 0.330000
0.920325 0.000000 0.330000
0.939562 0.000000 0.330000
0.952294 0.000000 0.330000
0.962255 0.000000 0.330000
0.970639 0.000000 0.330000
0.978817 0.000000 0.330000
0.988851 0.000000 0.330000
1.000000 0.000000 0.330000
0.000000 0.011149 0.330000
0.537615 0.018989 0.330000
0.768596 0.068682 0.330000
0.831426 0.122863 0.330000
0.871451 0.198902 0.330000
0.891283 0.270319 0.330000
0.906278 0.341742 0.330000
0.919073 0.410240 0.330000
0.931243 0.468081 0.330000
0.945990 0.506939 0.330000
0.962131 0.531544 0.330000
0.981011 0.537615 0.330000
1.000000 0.539344 0.330000
0.000000 0.021183 0.330000
0.531544 0.037869 0.330000
0.732694 0.121770 0.330000
0.808225 0.213016 0.330000
0.825645 0.343012 0.330000
0.841708 0.433361 0.330000
0.843347 0.522236 0.330000
0.838373 0.589819 0.330000
0.834771 0.645238 0.330000
0.847930 0.691882 0.330000
0.878230 0.732694 0.330000
0.931318 0.768596 0.330000
1.000000 0.792005 0.330000
0.000000 0.029361 0.330000
0.506939 0.054010 0.330000
0.691882 0.152070 0.330000
0.766328 0.264408 0.330000
0.759883 0.395175 0.330000
0.765874 0.489766 0.330000
0.739795 0.575090 0.330000
0.719843 0.646034 0.330000
0.710032 0.710889 0.330000
0.735592 0.766328 0.330000
0.786984 0.808225 0.330000
0.877138 0.831426 0.330000
1.000000 0.851178 0.330000
0.000000 0.037745 0.330000
0.468081 0.068757 0.330000
0.645238 0.165229 0.330000
0.710889 0.289968 0.330000
0.694902 0.414086 0.330000
0.681077 0.510892 0.330000
0.635168 0.581625 0.330000
0.610402 0.643367 0.330000
0.585914 0.694902 0.330000
0.604825 0.759883 0.330000
0.656988 0.825644 0.330000