# vtk DataFile Version 2.0
Mesh for Fierro
ASCII 
DATASET UNSTRUCTURED_GRID

POINTS 845 float
0.000000 0.000000 0.000000
0.294945 0.000000 0.000000
0.503152 0.000000 0.000000
0.635302 0.000000 0.000000
0.723405 0.000000 0.000000
0.788908 0.000000 0.000000
0.838556 0.000000 0.000000
0.877956 0.000000 0.000000
0.906940 0.000000 0.000000
0.933736 0.000000 0.000000
0.956779 0.000000 0.000000
0.979123 0.000000 0.000000
1.000000 0.000000 0.000000
0.000000 0.020877 0.000000
0.290625 0.026526 0.000000
0.496730 0.040953 0.000000
0.626521 0.064000 0.000000
0.713359 0.093644 0.000000
0.775437 0.124775 0.000000
0.823398 0.159343 0.000000
0.860425 0.194397 0.000000
0.891084 0.228882 0.000000
0.919828 0.256553 0.000000
0.946233 0.276709 0.000000
0.973474 0.290625 0.000000
1.000000 0.294945 0.000000
0.000000 0.043221 0.000000
0.276709 0.053767 0.000000
0.477058 0.080124 0.000000
0.602451 0.122800 0.000000
0.685801 0.175068 0.000000
0.743757 0.230482 0.000000
0.786928 0.290851 0.000000
0.822146 0.348197 0.000000
0.852581 0.403419 0.000000
0.885269 0.445762 0.000000
0.919876 0.477058 0.000000
0.959047 0.496730 0.000000
1.000000 0.503152 0.000000
0.000000 0.066264 0.000000
0.256553 0.080172 0.000000
0.445762 0.114731 0.000000
0.564080 0.172423 0.000000
0.641270 0.240098 0.000000
0.692163 0.310114 0.000000
0.725500 0.383822 0.000000
0.757248 0.450380 0.000000
0.786226 0.513593 0.000000
0.827577 0.564080 0.000000
0.877200 0.602451 0.000000
0.936001 0.626521 0.000000
1.000000 0.635302 0.000000
0.000000 0.093060 0.000000
0.228882 0.108916 0.000000
0.403419 0.147419 0.000000
0.513593 0.213774 0.000000
0.586105 0.291538 0.000000
0.628000 0.370430 0.000000
0.653164 0.450117 0.000000
0.680431 0.521075 0.000000
0.708462 0.586105 0.000000
0.759902 0.641270 0.000000
0.824932 0.685801 0.000000
0.906356 0.713359 0.000000
1.000000 0.723405 0.000000
0.000000 0.122044 0.000000
0.194397 0.139575 0.000000
0.348197 0.177854 0.000000
0.450380 0.242752 0.000000
0.521075 0.319569 0.000000
0.556442 0.398567 0.000000
0.578224 0.479324 0.000000
0.601433 0.556442 0.000000
0.629570 0.628000 0.000000
0.689886 0.692163 0.000000
0.769518 0.743757 0.000000
0.875225 0.775437 0.000000
1.000000 0.788908 0.000000
0.000000 0.161444 0.000000
0.159343 0.176602 0.000000
0.290851 0.213072 0.000000
0.383822 0.274500 0.000000
0.450117 0.346836 0.000000
0.479324 0.421776 0.000000
0.500000 0.500000 0.000000
0.520676 0.578224 0.000000
0.549883 0.653164 0.000000
0.616178 0.725500 0.000000
0.709149 0.786928 0.000000
0.840657 0.823398 0.000000
1.000000 0.838556 0.000000
0.000000 0.211092 0.000000
0.124775 0.224563 0.000000
0.230482 0.256243 0.000000
0.310114 0.307837 0.000000
0.370430 0.372000 0.000000
0.398567 0.443558 0.000000
0.421776 0.520676 0.000000
0.443558 0.601433 0.000000
0.478925 0.680431 0.000000
0.549620 0.757248 0.000000
0.651803 0.822146 0.000000
0.805604 0.860425 0.000000
1.000000 0.877956 0.000000
0.000000 0.276595 0.000000
0.093644 0.286641 0.000000
0.175068 0.314199 0.000000
0.240097 0.358730 0.000000
0.291538 0.413894 0.000000
0.319569 0.478925 0.000000
0.346836 0.549883 0.000000
0.372000 0.629570 0.000000
0.413894 0.708462 0.000000
0.486407 0.786226 0.000000
0.596581 0.852581 0.000000
0.771119 0.891084 0.000000
1.000000 0.906940 0.000000
0.000000 0.364698 0.000000
0.064000 0.373479 0.000000
0.122800 0.397549 0.000000
0.172423 0.435920 0.000000
0.213774 0.486407 0.000000
0.242752 0.549620 0.000000
0.274500 0.616178 0.000000
0.307837 0.689886 0.000000
0.358730 0.759903 0.000000
0.435920 0.827577 0.000000
0.554238 0.885269 0.000000
0.743447 0.919828 0.000000
1.000000 0.933736 0.000000
0.000000 0.496848 0.000000
0.040953 0.503270 0.000000
0.080124 0.522942 0.000000
0.114731 0.554238 0.000000
0.147419 0.596581 0.000000
0.177854 0.651803 0.000000
0.213072 0.709149 0.000000
0.256243 0.769518 0.000000
0.314199 0.824932 0.000000
0.397549 0.877200 0.000000
0.522942 0.919876 0.000000
0.723292 0.946233 0.000000
1.000000 0.956779 0.000000
0.000000 0.705056 0.000000
0.026526 0.709376 0.000000
0.053767 0.723292 0.000000
0.080172 0.743447 0.000000
0.108916 0.771119 0.000000
0.139575 0.805604 0.000000
0.176602 0.840657 0.000000
0.224563 0.875225 0.000000
0.286641 0.906356 0.000000
0.373479 0.936000 0.000000
0.503270 0.959048 0.000000
0.709376 0.973474 0.000000
1.000000 0.979123 0.000000
0.000000 1.000000 0.000000
0.020877 1.000000 0.000000
0.043221 1.000000 0.000000
0.066264 1.000000 0.000000
0.093060 1.000000 0.000000
0.122044 1.000000 0.000000
0.161444 1.000000 0.000000
0.211092 1.000000 0.000000
0.276595 1.000000 0.000000
0.364698 1.000000 0.000000
0.496848 1.000000 0.000000
0.705056 1.000000 0.000000
1.000000 1.000000 0.000000
0.000000 0.000000 0.082500
0.294945 0.000000 0.082500
0.503152 0.000000 0.082500
0.635302 0.000000 0.082500
0.723405 0.000000 0.082500
0.788908 0.000000 0.082500
0.838556 0.000000 0.082500
0.877956 0.000000 0.082500
0.906940 0.000000 0.082500
0.933736 0.000000 0.082500
0.956779 0.000000 0.082500
0.979123 0.000000 0.082500
1.000000 0.000000 0.082500
0.000000 0.020877 0.082500
0.290625 0.026526 0.082500
0.496730 0.040953 0.082500
0.626521 0.064000 0.082500
0.713359 0.093644 0.082500
0.775437 0.124775 0.082500
0.823398 0.159343 0.082500
0.860425 0.194397 0.082500
0.891084 0.228882 0.082500
0.919828 0.256553 0.082500
0.946233 0.276709 0.082500
0.973474 0.290625 0.082500
1.000000 0.294945 0.082500
0.000000 0.043221 0.082500
0.276709 0.053767 0.082500
0.477058 0.080124 0.082500
0.602451 0.122800 0.082500
0.685801 0.175068 0.082500
0.743757 0.230482 0.082500
0.786928 0.290851 0.082500
0.822146 0.348197 0.082500
0.852581 0.403419 0.082500
0.885269 0.445762 0.082500
0.919876 0.477058 0.082500
0.959047 0.496730 0.082500
1.000000 0.503152 0.082500
0.000000 0.066264 0.082500
0.256553 0.080172 0.082500
0.445762 0.114731 0.082500
0.564080 0.172423 0.082500
0.641270 0.240098 0.082500
0.692163 0.310114 0.082500
0.725500 0.383822 0.082500
0.757248 0.450380 0.082500
0.786226 0.513593 0.082500
0.827577 0.564080 0.082500
0.877200 0.602451 0.082500
0.936001 0.626521 0.082500
1.000000 0.635302 0.082500
0.000000 0.093060 0.082500
0.228882 0.108916 0.082500
0.403419 0.147419 0.082500
0.513593 0.213774 0.082500
0.586105 0.291538 0.082500
0.628000 0.370430 0.082500
0.653164 0.450117 0.082500
0.680431 0.521075 0.082500
0.708462 0.586105 0.082500
0.759902 0.641270 0.082500
0.824932 0.685801 0.082500
0.906356 0.713359 0.082500
1.000000 0.723405 0.082500
0.000000 0.122044 0.082500
0.194397 0.139575 0.082500
0.348197 0.177854 0.082500
0.450380 0.242752 0.082500
0.521075 0.319569 0.082500
0.556442 0.398567 0.082500
0.578224 0.479324 0.082500
0.601433 0.556442 0.082500
0.629570 0.628000 0.082500
0.689886 0.692163 0.082500
0.769518 0.743757 0.082500
0.875225 0.775437 0.082500
1.000000 0.788908 0.082500
0.000000 0.161444 0.082500
0.159343 0.176602 0.082500
0.290851 0.213072 0.082500
0.383822 0.274500 0.082500
0.450117 0.346836 0.082500
0.479324 0.421776 0.082500
0.500000 0.500000 0.082500
0.520676 0.578224 0.082500
0.549883 0.653164 0.082500
0.616178 0.725500 0.082500
0.709149 0.786928 0.082500
0.840657 0.823398 0.082500
1.000000 0.838556 0.082500
0.000000 0.211092 0.082500
0.124775 0.224563 0.082500
0.230482 0.256243 0.082500
0.310114 0.307837 0.082500
0.370430 0.372000 0.082500
0.398567 0.443558 0.082500
0.421776 0.520676 0.082500
0.443558 0.601433 0.082500
0.478925 0.680431 0.082500
0.549620 0.757248 0.082500
0.651803 0.822146 0.082500
0.805604 0.860425 0.082500
1.000000 0.877956 0.082500
0.000000 0.276595 0.082500
0.093644 0.286641 0.082500
0.175068 0.314199 0.082500
0.240097 0.358730 0.082500
0.291538 0.413894 0.082500
0.319569 0.478925 0.082500
0.346836 0.549883 0.082500
0.372000 0.629570 0.082500
0.413894 0.708462 0.082500
0.486407 0.786226 0.082500
0.596581 0.852581 0.082500
0.771119 0.891084 0.082500
1.000000 0.906940 0.082500
0.000000 0.364698 0.082500
0.064000 0.373479 0.082500
0.122800 0.397549 0.082500
0.172423 0.435920 0.082500
0.213774 0.486407 0.082500
0.242752 0.549620 0.082500
0.274500 0.616178 0.082500
0.307837 0.689886 0.082500
0.358730 0.759903 0.082500
0.435920 0.827577 0.082500
0.554238 0.885269 0.082500
0.743447 0.919828 0.082500
1.000000 0.933736 0.082500
0.000000 0.496848 0.082500
0.040953 0.503270 0.082500
0.080124 0.522942 0.082500
0.114731 0.554238 0.082500
0.147419 0.596581 0.082500
0.177854 0.651803 0.082500
0.213072 0.709149 0.082500
0.256243 0.769518 0.082500
0.314199 0.824932 0.082500
0.397549 0.877200 0.082500
0.522942 0.919876 0.082500
0.723292 0.946233 0.082500
1.000000 0.956779 0.082500
0.000000 0.705056 0.082500
0.026526 0.709376 0.082500
0.053767 0.723292 0.082500
0.080172 0.743447 0.082500
0.108916 0.771119 0.082500
0.139575 0.805604 0.082500
0.176602 0.840657 0.082500
0.224563 0.875225 0.082500
0.286641 0.906356 0.082500
0.373479 0.936000 0.082500
0.503270 0.959048 0.082500
0.709376 0.973474 0.082500
1.000000 0.979123 0.082500
0.000000 1.000000 0.082500
0.020877 1.000000 0.082500
0.043221 1.000000 0.082500
0.066264 1.000000 0.082500
0.093060 1.000000 0.082500
0.122044 1.000000 0.082500
0.161444 1.000000 0.082500
0.211092 1.000000 0.082500
0.276595 1.000000 0.082500
0.364698 1.000000 0.082500
0.496848 1.000000 0.082500
0.705056 1.000000 0.082500
1.000000 1.000000 0.082500
0.000000 0.000000 0.165000
0.294945 0.000000 0.165000
0.503152 0.000000 0.165000
0.635302 0.000000 0.165000
0.723405 0.000000 0.165000
0.788908 0.000000 0.165000
0.838556 0.000000 0.165000
0.877956 0.000000 0.165000
0.906940 0.000000 0.165000
0.933736 0.000000 0.165000
0.956779 0.000000 0.165000
0.979123 0.000000 0.165000
1.000000 0.000000 0.165000
0.000000 0.020877 0.165000
0.290625 0.026526 0.165000
0.496730 0.040953 0.165000
0.626521 0.064000 0.165000
0.713359 0.093644 0.165000
0.775437 0.124775 0.165000
0.823398 0.159343 0.165000
0.860425 0.194397 0.165000
0.891084 0.228882 0.165000
0.919828 0.256553 0.165000
0.946233 0.276709 0.165000
0.973474 0.290625 0.165000
1.000000 0.294945 0.165000
0.000000 0.043221 0.165000
0.276709 0.053767 0.165000
[...]
POINT_DATA 845 
VECTORS pos float 
0.000000 0.000000 0.000000
0.294945 0.000000 0.000000
0.503152 0.000000 0.000000
0.635302 0.000000 0.000000
0.723405 0.000000 0.000000
0.788908 0.000000 0.000000
0.838556 0.000000 0.000000
0.877956 0.000000 0.000000
0.906940 0.000000 0.000000
0.933736 0.000000 0.000000
0.956779 0.000000 0.000000
0.979123 0.000000 0.000000
1.000000 0.000000 0.000000
0.000000 0.020877 0.000000
0.290625 0.026526 0.000000
0.496730 0.040953 0.000000
0.626521 0.064000 0.000000
0.713359 0.093644 0.000000
0.775437 0.124775 0.000000
0.823398 0.159343 0.000000
0.860425 0.194397 0.000000
0.891084 0.228882 0.000000
0.919828 0.256553 0.000000
0.946233 0.276709 0.000000
0.973474 0.290625 0.000000
1.000000 0.294945 0.000000
0.000000 0.043221 0.000000
0.276709 0.053767 0.000000
0.477058 0.080124 0.000000
0.602451 0.122800 0.000000
0.685801 0.175068 0.000000
0.743757 0.230482 0.000000
0.786928 0.290851 0.000000
0.822146 0.348197 0.000000
0.852581 0.403419 0.000000
0.885269 0.445762 0.000000
0.919876 0.477058 0.000000
0.959047 0.496730 0.000000
1.000000 0.503152 0.000000
0.000000 0.066264 0.000000
0.256553 0.080172 0.000000
0.445762 0.114731 0.000000
0.564080 0.172423 0.000000
0.641270 0.240098 0.000000
0.692163 0.310114 0.000000
0.725500 0.383822 0.000000
0.757248 0.450380 0.000000
0.786226 0.513593 0.000000
0.827577 0.564080 0.000000
0.877200 0.602451 0.000000
0.936001 0.626521 0.000000
1.000000 0.635302 0.000000
0.000000 0.093060 0.000000
0.228882 0.108916 0.000000
0.403419 0.147419 0.000000
0.513593 0.213774 0.000000
0.586105 0.291538 0.000000
0.628000 0.370430 0.000000
0.653164 0.450117 0.000000
0.680431 0.521075 0.000000
0.708462 0.586105 0.000000
0.759902 0.641270 0.000000
0.824932 0.685801 0.000000
0.906356 0.713359 0.000000
1.000000 0.723405 0.000000
0.000000 0.122044 0.000000
0.194397 0.139575 0.000000
0.348197 0.177854 0.000000
0.450380 0.242752 0.000000
0.521075 0.319569 0.000000
0.556442 0.398567 0.000000
0.578224 0.479324 0.000000
0.601433 0.556442 0.000000
0.629570 0.628000 0.000000
0.689886 0.692163 0.000000
0.769518 0.743757 0.000000
0.875225 0.775437 0.000000
1.000000 0.788908 0.000000
0.000000 0.161444 0.000000
0.159343 0.176602 0.000000
0.290851 0.213072 0.000000
0.383822 0.274500 0.000000
0.450117 0.346836 0.000000
0.479324 0.421776 0.000000
0.500000 0.500000 0.000000
0.520676 0.578224 0.000000
0.549883 0.653164 0.000000
0.616178 0.725500 0.000000
0.709149 0.786928 0.000000
0.840657 0.823398 0.000000
1.000000 0.838556 0.000000
0.000000 0.211092 0.000000
0.124775 0.224563 0.000000
0.230482 0.256243 0.000000
0.310114 0.307837 0.000000
0.370430 0.372000 0.000000
0.398567 0.443558 0.000000
0.421776 0.520676 0.000000
0.443558 0.601433 0.000000
0.478925 0.680431 0.000000
0.549620 0.757248 0.000000
0.651803 0.822146 0.000000
0.805604 0.860425 0.000000
1.000000 0.877956 0.000000
0.000000 0.276595 0.000000
0.093644 0.286641 0.000000
0.175068 0.314199 0.000000
0.240097 0.358730 0.000000
0.291538 0.413894 0.000000
0.319569 0.478925 0.000000
0.346836 0.549883 0.000000
0.372000 0.629570 0.000000
0.413894 0.708462 0.000000
0.486407 0.786226 0.000000
0.596581 0.852581 0.000000
0.771119 0.891084 0.000000
1.000000 0.906940 0.000000
0.000000 0.364698 0.000000
0.064000 0.373479 0.000000
0.122800 0.397549 0.000000
0.172423 0.435920 0.000000
0.213774 0.486407 0.000000
0.242752 0.549620 0.000000
0.274500 0.616178 0.000000
0.307837 0.689886 0.000000
0.358730 0.759903 0.000000
0.435920 0.827577 0.000000
0.554238 0.885269 0.000000
0.743447 0.919828 0.000000
1.000000 0.933736 0.000000
0.000000 0.496848 0.000000
0.040953 0.503270 0.000000
0.080124 0.522942 0.000000
0.114731 0.554238 0.000000
0.147419 0.596581 0.000000
0.177854 0.651803 0.000000
0.213072 0.709149 0.000000
0.256243 0.769518 0.000000
0.314199 0.824932 0.000000
0.397549 0.877200 0.000000
0.522942 0.919876 0.000000
0.723292 0.946233 0.000000
1.000000 0.956779 0.000000
0.000000 0.705056 0.000000
0.026526 0.709376 0.000000
0.053767 0.723292 0.000000
0.080172 0.743447 0.000000
0.108916 0.771119 0.000000
0.139575 0.805604 0.000000
0.176602 0.840657 0.000000
0.224563 0.875225 0.000000
0.286641 0.906356 0.000000
0.373479 0.936000 0.000000
0.503270 0.959048 0.000000
0.709376 0.973474 0.000000
1.000000 0.979123 0.000000
0.000000 1.000000 0.000000
0.020877 1.000000 0.000000
0.043221 1.000000 0.000000
0.066264 1.000000 0.000000
0.093060 1.000000 0.000000
0.122044 1.000000 0.000000
0.161444 1.000000 0.000000
0.211092 1.000000 0.000000
0.276595 1.000000 0.000000
0.364698 1.000000 0.000000
0.496848 1.000000 0.000000
0.705056 1.000000 0.000000
1.000000 1.000000 0.000000
0.000000 0.000000 0.082500
0.294945 0.000000 0.082500
0.503152 0.000000 0.082500
0.635302 0.000000 0.082500
0.723405 0.000000 0.082500
0.788908 0.000000 0.082500
0.838556 0.000000 0.082500
0.877956 0.000000 0.082500
0.906940 0.000000 0.082500
0.933736 0.000000 0.082500
0.956779 0.000000 0.082500
0.979123 0.000000 0.082500
1.000000 0.000000 0.082500
0.000000 0.020877 0.082500
0.290625 0.026526 0.082500
0.496730 0.040953 0.082500
0.626521 0.064000 0.082500
0.713359 0.093644 0.082500
0.775437 0.124775 0.082500
0.823398 0.159343 0.082500
0.860425 0.194397 0.082500
0.891084 0.228882 0.082500
0.919828 0.256553 0.082500
0.946233 0.276709 0.082500
0.973474 0.290625 0.082500
1.000000 0.294945 0.082500
0.000000 0.043221 0.082500
0.276709 0.053767 0.082500
0.477058 0.080124 0.082500
0.602451 0.122800 0.082500
0.685801 0.175068 0.082500
0.743757 0.230482 0.082500
0.786928 0.290851 0.082500
0.822146 0.348197 0.082500
0.852581 0.403419 0.082500
0.885269 0.445762 0.082500
0.919876 0.477058 0.082500
0.959047 0.496730 0.082500
1.000000 0.503152 0.082500
0.000000 0.066264 0.082500
0.256553 0.080172 0.082500
0.445762 0.114731 0.082500
0.564080 0.172423 0.082500
0.641270 0.240098 0.082500
0.692163 0.310114 0.082500
0.725500 0.383822 0.082500
0.757248 0.450380 0.082500
0.786226 0.513593 0.082500
0.827577 0.564080 0.082500
0.877200 0.602451 0.082500
0.936001 0.626521 0.082500
1.000000 0.635302 0.082500
0.000000 0.093060 0.082500
0.228882 0.108916 0.082500
0.403419 0.147419 0.082500
0.513593 0.213774 0.082500
0.586105 0.291538 0.082500
0.628000 0.370430 0.082500
0.653164 0.450117 0.082500
0.680431 0.521075 0.082500
0.708462 0.586105 0.082500
0.759902 0.641270 0.082500
0.824932 0.685801 0.082500
0.906356 0.713359 0.082500
1.000000 0.723405 0.082500
0.000000 0.122044 0.082500
0.194397 0.139575 0.082500
0.348197 0.177854 0.082500
0.450380 0.242752 0.082500
0.521075 0.319569 0.082500
0.556442 0.398567 0.082500
0.578224 0.479324 0.082500
0.601433 0.556442 0.082500
0.629570 0.628000 0.082500
0.689886 0.692163 0.082500
0.769518 0.743757 0.082500
0.875225 0.775437 0.082500
1.000000 0.788908 0.082500
0.000000 0.161444 0.082500
0.159343 0.176602 0.082500
0.290851 0.213072 0.082500
0.383822 0.274500 0.082500
0.450117 0.346836 0.082500
0.479324 0.421776 0.082500
0.500000 0.500000 0.082500
0.520676 0.578224 0.082500
0.549883 0.653164 0.082500
0.616178 0.725500 0.082500
0.709149 0.786928 0.082500
0.840657 0.823398 0.082500
1.000000 0.838556 0.082500
0.000000 0.211092 0.082500
0.124775 0.224563 0.082500
0.230482 0.256243 0.082500
0.310114 0.307837 0.082500
0.370430 0.372000 0.082500
0.398567 0.443558 0.082500
0.421776 0.520676 0.082500
0.443558 0.601433 0.082500
0.478925 0.680431 0.082500
0.549620 0.757248 0.082500
0.651803 0.822146 0.082500
0.805604 0.860425 0.082500
1.000000 0.877956 0.082500
0.000000 0.276595 0.082500
0.093644 0.286641 0.082500
0.175068 0.314199 0.082500
0.240097 0.358730 0.082500
0.291538 0.413894 0.082500
0.319569 0.478925 0.082500
0.346836 0.549883 0.082500
0.372000 0.629570 0.082500
0.413894 0.708462 0.082500
0.486407 0.786226 0.082500
0.596581 0.852581 0.082500
0.771119 0.891084 0.082500
1.000000 0.906940 0.082500
0.000000 0.364698 0.082500
0.064000 0.373479 0.082500
0.122800 0.397549 0.082500
0.172423 0.435920 0.082500
0.213774 0.486407 0.082500
0.242752 0.549620 0.082500
0.274500 0.616178 0.082500
0.307837 0.689886 0.082500
0.358730 0.759903 0.082500
0.435920 0.827577 0.082500
0.554238 0.885269 0.082500
0.743447 0.919828 0.082500
1.000000 0.933736 0.082500
0.000000 0.496848 0.082500
0.040953 0.503270 0.082500
0.080124 0.522942 0.082500
0.114731 0.554238 0.082500
0.147419 0.596581 0.082500
0.177854 0.651803 0.082500
0.213072 0.709149 0.082500
0.256243 0.769518 0.082500
0.314199 0.824932 0.082500
0.397549 0.877200 0.082500
0.522942 0.919876 0.082500
0.723292 0.946233 0.082500
1.000000 0.956779 0.082500
0.000000 0.705056 0.082500
0.026526 0.709376 0.082500
0.053767 0.723292 0.082500
0.080172 0.743447 0.082500
0.108916 0.771119 0.082500
0.139575 0.805604 0.082500
0.176602 0.840657 0.082500
0.224563 0.875225 0.082500
0.286641 0.906356 0.082500
0.373479 0.936000 0.082500
0.503270 0.959048 0.082500
0.709376 0.973474 0.082500
1.000000 0.979123 0.082500
0.000000 1.000000 0.082500
0.020877 1.000000 0.082500
0.043221 1.000000 0.082500
0.066264 1.000000 0.082500
0.093060 1.000000 0.082500
0.122044 1.000000 0.082500
0.161444 1.000000 0.082500
0.211092 1.000000 0.082500
0.276595 1.000000 0.082500
0.364698 1.000000 0.082500
0.496848 1.000000 0.082500
0.705056 1.000000 0.082500
1.000000 1.000000 0.082500
0.000000 0.000000 0.165000
0.294945 0.000000 0.165000
0.503152 0.000000 0.165000
0.635302 0.000000 0.165000
0.723405 0.000000 0.165000
0.788908 0.000000 0.165000
0.838556 0.000000 0.165000
0.877956 0.000000 0.165000
0.906940 0.000000 0.165000
0.933736 0.000000 0.165000
0.956779 0.000000 0.165000
0.979123 0.000000 0.165000
1.000000 0.000000 0.165000
0.000000 0.020877 0.165000
0.290625 0.026526 0.165000
0.496730 0.040953 0.165000
0.626521 0.064000 0.165000
0.713359 0.093644 0.165000
0.775437 0.124775 0.165000
0.823398 0.159343 0.165000
0.860425 0.194397 0.165000
0.891084 0.228882 0.165000
0.919828 0.256553 0.165000
0.946233 0.276709 0.165000
0.973474 0.290625 0.165000
1.000000 0.294945 0.165000
0.000000 0.043221 0.165000
0.276709 0.053767 0.165000
0.477058 0.080124 0.165000
0.602451 0.122800 0.165000
0.685801 0.175068 0.165000
0.743757 0.230482 0.165000
0.786928 0.290851 0.165000
0.822146 0.348197 0.165000
0.852581 0.403419 0.165000
0.885269 0.445762 0.165000
0.919876 0.477058 0.165000
0.959047 0.496730 0.165000
1.000000 0.503152 0.165000
0.000000 0.066264 0.165000
0.256553 0.080172 0.165000
0.445762 0.114731 0.165000
0.564080 0.172423 0.165000
0.641270 0.240098 0.165000
0.692163 0.310114 0.165000
0.725500 0.383822 0.165000
0.757248 0.450380 0.165000
0.786226 0.513593 0.165000
0.827577 0.564080 0.165000
0.877200 0.602451 0.165000
0.936001 0.626521 0.165000
1.000000 0.635302 0.165000
0.000000 0.093060 0.165000
0.228882 0.108916 0.165000
0.403419 0.147419 0.165000
0.513593 0.213774 0.165000
0.586105 0.291538 0.165000
0.628000 0.370430 0.165000
0.653164 0.450117 0.165000
0.680431 0.521075 0.165000
0.708462 0.586105 0.165000
0.759902 0.641270 0.165000
0.824932 0.685801 0.165000
0.906356 0.713359 0.165000
1.000000 0.723405 0.165000
0.000000 0.122044 0.165000
0.194397 0.139575 0.165000
0.348197 0.177854 0.165000
0.450380 0.242752 0.165000
0.521075 0.319569 0.165000
0.556442 0.398567 0.165000
0.578224 0.479324 0.165000
0.601433 0.556442 0.165000
0.629570 0.628000 0.165000
0.689886 0.692163 0.165000
0.769518 0.743757 0.165000
0.875225 0.775437 0.165000
1.000000 0.788908 0.165000
0.000000 0.161444 0.165000
0.159343 0.176602 0.165000
0.290851 0.213072 0.165000
0.383822 0.274500 0.165000
0.450117 0.346836 0.165000
0.479324 0.421776 0.165000
0.500000 0.500000 0.165000
0.520676 0.578224 0.165000
0.549883 0.653164 0.165000
0.616178 0.725500 0.165000
0.709149 0.786928 0.165000
0.840657 0.823398 0.165000
1.000000 0.838556 0.165000
0.000000 0.211092 0.165000
0.124775 0.224563 0.165000
0.230482 0.256243 0.165000
0.310114 0.307837 0.165000
0.370430 0.372000 0.165000
0.398567 0.443558 0.165000
0.421776 0.520676 0.165000
0.443558 0.601433 0.165000
0.478925 0.680431 0.165000
0.549620 0.757248 0.165000
0.651803 0.822146 0.165000
0.805604 0.860425 0.165000
1.000000 0.877956 0.165000
0.000000 0.276595 0.165000
0.093644 0.286641 0.165000
0.175068 0.314199 0.165000
0.240097 0.358730 0.165000
0.291538 0.413894 0.165000
0.319569 0.478925 0.165000
0.346836 0.549883 0.165000
0.372000 0.629570 0.165000
0.413894 0.708462 0.165000
0.486407 0.786226 0.165000
0.596581 0.852581 0.165000
0.771119 0.891084 0.165000
1.000000 0.906940 0.165000
0.000000 0.364698 0.165000
0.064000 0.373479 0.165000
0.122800 0.397549 0.165000
0.172423 0.435920 0.165000
0.213774 0.486407 0.165000
0.242752 0.549620 0.165000
0.274500 0.616178 0.165000
0.307837 0.689886 0.165000
0.358730 0.759903 0.165000
0.435920 0.827577 0.165000
0.554238 0.885269 0.165000
0.743447 0.919828 0.165000
1.000000 0.933736 0.165000
0.000000 0.496848 0.165000
0.040953 0.503270 0.165000
0.080124 0.522942 0.165000
0.114731 0.554238 0.165000
0.147419 0.596581 0.165000
0.177854 0.651803 0.165000
0.213072 0.709149 0.165000
0.256243 0.769518 0.165000
0.314199 0.824932 0.165000
0.397549 0.877200 0.165000
0.522942 0.919876 0.165000
0.723292 0.946233 0.165000
1.000000 0.956779 0.165000
0.000000 0.705056 0.165000
0.026526 0.709376 0.165000
0.053767 0.723292 0.165000
0.080172 0.743447 0.165000
0.108916 0.771119 0.165000
0.139575 0.805604 0.165000
0.176602 0.840657 0.165000
0.224563 0.875225 0.165000
0.286641 0.906356 0.165000
0.373479 0.936000 0.165000
0.503270 0.959048 0.165000
0.709376 0.973474 0.165000
1.000000 0.979123 0.165000
0.000000 1.000000 0.165000
0.020877 1.000000 0.165000
0.043221 1.000000 0.165000
0.066264 1.000000 0.165000
0.093060 1.000000 0.165000
0.122044 1.000000 0.165000
0.161444 1.000000 0.165000
0.211092 1.000000 0.165000
0.276595 1.000000 0.165000
0.364698 1.000000 0.165000
0.496848 1.000000 0.165000
0.705056 1.000000 0.165000
1.000000 1.000000 0.165000
0.000000 0.000000 0.247500
0.294945 0.000000 0.247500
0.503152 0.000000 0.247500
0.635302 0.000000 0.247500
0.723405 0.000000 0.247500
0.788908 0.000000 0.247500
0.838556 0.000000 0.247500
0.877956 0.000000 0.247500
0.906940 0.000000 0.247500
0.933736 0.000000 0.247500
0.956779 0.000000 0.247500
0.979123 0.000000 0.247500
1.000000 0.000000 0.247500
0.000000 0.020877 0.247500
0.290625 0.026526 0.247500
0.496730 0.040953 0.247500
0.626521 0.064000 0.247500
0.713359 0.093644 0.247500
0.775437 0.124775 0.247500
0.823398 0.159343 0.247500
0.860425 0.194397 0.247500
0.891084 0.228882 0.247500
0.919828 0.256553 0.247500
0.946233 0.276709 0.247500
0.973474 0.290625 0.247500
1.000000 0.294945 0.247500
0.000000 0.043221 0.247500
0.276709 0.053767 0.247500
0.477058 0.080124 0.247500
0.602451 0.122800 0.247500
0.685801 0.175068 0.247500
0.743757 0.230482 0.247500
0.786928 0.290851 0.247500
0.822146 0.348197 0.247500
0.852581 0.403419 0.247500
0.885269 0.445762 0.247500
0.919876 0.477058 0.247500
0.959047 0.496730 0.247500
1.000000 0.503152 0.247500
0.000000 0.066264 0.247500
0.256553 0.080172 0.247500
0.445762 0.114731 0.247500
0.564080 0.172423 0.247500
0.641270 0.240098 0.247500
0.692163 0.310114 0.247500
0.725500 0.383822 0.247500
0.757248 0.450380 0.247500
0.786226 0.513593 0.247500
0.827577 0.564080 0.247500
0.877200 0.602451 0.247500
0.936001 0.626521 0.247500
1.000000 0.635302 0.247500
0.000000 0.093060 0.247500
0.228882 0.108916 0.247500
0.403419 0.147419 0.247500
0.513593 0.213774 0.247500
0.586105 0.291538 0.247500
0.628000 0.370430 0.247500
0.653164 0.450117 0.247500
0.680431 0.521075 0.247500
0.708462 0.586105 0.247500
0.759902 0.641270 0.247500
0.824932 0.685801 0.247500
0.906356 0.713359 0.247500
1.000000 0.723405 0.247500
0.000000 0.122044 0.247500
0.194397 0.139575 0.247500
0.348197 0.177854 0.247500
0.450380 0.242752 0.247500
0.521075 0.319569 0.247500
0.556442 0.398567 0.247500
0.578224 0.479324 0.247500
0.601433 0.556442 0.247500
0.629570 0.628000 0.247500
0.689886 0.692163 0.247500
0.769518 0.743757 0.247500
0.875225 0.775437 0.247500
1.000000 0.788908 0.247500
0.000000 0.161444 0.247500
0.159343 0.176602 0.247500
0.290851 0.213072 0.247500
0.383822 0.274500 0.247500
0.450117 0.346836 0.247500
0.479324 0.421776 0.247500
0.500000 0.500000 0.247500
0.520676 0.578224 0.247500
0.549883 0.653164 0.247500
0.616178 0.725500 0.247500
0.709149 0.786928 0.247500
0.840657 0.823398 0.247500
1.000000 0.838556 0.247500
0.000000 0.211092 0.247500
0.124775 0.224563 0.247500
0.230482 0.256243 0.247500
0.310114 0.307837 0.247500
0.370430 0.372000 0.247500
0.398567 0.443558 0.247500
0.421776 0.520676 0.247500
0.443558 0.601433 0.247500
0.478925 0.680431 0.247500
0.549620 0.757248 0.247500
0.651803 0.822146 0.247500
0.805604 0.860425 0.247500
1.000000 0.877956 0.247500
0.000000 0.276595 0.247500
0.093644 0.286641 0.247500
0.175068 0.314199 0.247500
0.240097 0.358730 0.247500
0.291538 0.413894 0.247500
0.319569 0.478925 0.247500
0.346836 0.549883 0.247500
0.372000 0.629570 0.247500
0.413894 0.708462 0.247500
0.486407 0.786226 0.247500
0.596581 0.852581 0.247500
0.771119 0.891084 0.247500
1.000000 0.906940 0.247500
0.000000 0.364698 0.247500
0.064000 0.373479 0.247500
0.122800 0.397549 0.247500
0.172423 0.435920 0.247500
0.213774 0.486407 0.247500
0.242752 0.549620 0.247500
0.274500 0.616178 0.247500
0.307837 0.689886 0.247500
0.358730 0.759903 0.247500
0.435920 0.827577 0.247500
0.554238 0.885269 0.247500
0.743447 0.919828 0.247500
1.000000 0.933736 0.247500
0.000000 0.496848 0.247500
0.040953 0.503270 0.247500
0.080124 0.522942 0.247500
0.114731 0.554238 0.247500
0.147419 0.596581 0.247500
0.177854 0.651803 0.247500
0.213072 0.709149 0.247500
0.256243 0.769518 0.247500
0.314199 0.824932 0.247500
0.397549 0.877200 0.247500
0.522942 0.919876 0.247500
0.723292 0.946233 0.247500
1.000000 0.956779 0.247500
0.000000 0.705056 0.247500
0.026526 0.709376 0.247500
0.053767 0.723292 0.247500
0.080172 0.743447 0.247500
0.108916 0.771119 0.247500
0.139575 0.805604 0.247500
0.176602 0.840657 0.247500
0.224563 0.875225 0.247500
0.286641 0.906356 0.247500
0.373479 0.936000 0.247500
0.503270 0.959048 0.247500
0.709376 0.973474 0.247500
1.000000 0.979123 0.247500
0.000000 1.000000 0.247500
0.020877 1.000000 0.247500
0.043221 1.000000 0.247500
0.066264 1.000000 0.247500
0.093060 1.000000 0.247500
0.122044 1.000000 0.247500
0.161444 1.000000 0.247500
0.211092 1.000000 0.247500
0.276595 1.000000 0.247500
0.364698 1.000000 0.247500
0.496848 1.000000 0.247500
0.705056 1.000000 0.247500
1.000000 1.000000 0.247500
0.000000 0.000000 0.330000
0.294945 0.000000 0.330000
0.503152 0.000000 0.330000
0.635302 0.000000 0.330000
0.723405 0.000000 0.330000
0.788908 0.000000 0.330000
0.838556 0.000000 0.330000
0.877956 0.000000 0.330000
0.906940 0.000000 0.330000
0.933736 0.000000 0.330000
0.956779 0.000000 0.330000
0.979123 0.000000 0.330000
1.000000 0.000000 0.330000
0.000000 0.020877 0.330000
0.290625 0.026526 0.330000
0.496730 0.040953 0.330000
0.626521 0.064000 0.330000
0.713359 0.093644 0.330000
0.775437 0.124775 0.330000
0.823398 0.159343 0.330000
0.860425 0.194397 0.330000
0.891084 0.228882 0.330000
0.919828 0.256553 0.330000
0.946233 0.276709 0.330000
0.973474 0.290625 0.330000
1.000000 0.294945 0.330000
0.000000 0.043221 0.330000
0.276709 0.053767 0.330000
0.477058 0.080124 0.330000
0.602451 0.122800 0.330000
0.685801 0.175068 0.330000
0.743757 0.230482 0.330000
0.786928 0.290851 0.330000
0.822146 0.348197 0.330000
0.852581 0.403419 0.330000
0.885269 0.445762 0.330000
0.919876 0.477058 0.330000
0.959047 0.496730 0.330000
1.000000 0.503152 0.330000
0.000000 0.066264 0.330000
0.256553 0.080172 0.330000
0.445762 0.114731 0.330000
0.564080 0.172423 0.330000
0.641270 0.240098 0.330000
0.692163 0.310114 0.330000
0.725500 0.383822 0.330000
0.757248 0.450380 0.330000
0.786226 0.513593 0.330000
0.827577 0.564080 0.330000
0.877200 0.602451 0.330000
0.936001 0.626521 0.330000
1.000000 0.635302 0.330000
0.000000 0.093060 0.330000
0.228882 0.108916 0.330000
0.403419 0.147419 0.330000
0.513593 0.213774 0.330000
0.586105 0.291538 0.330000
0.628000 0.370430 0.330000
0.653164 0.450117 0.330000
0.680431 0.521075 0.330000
0.708462 0.586105 0.330000
0.759902 0.641270 0.330000
0.824932 0.685801 0.330000