# vtk DataFile Version 2.0
Mesh for Fierro
ASCII 
DATASET UNSTRUCTURED_GRID

POINTS 845 float
0.000000 0.000000 0.000000
0.351476 0.000000 0.000000
0.573174 0.000000 0.000000
0.693701 0.000000 0.000000
0.774499 0.000000 0.000000
0.825647 0.000000 0.000000
0.866382 0.000000 0.000000
0.897609 0.000000 0.000000
0.922156 0.000000 0.000000
0.943520 0.000000 0.000000
0.963043 0.000000 0.000000
0.981959 0.000000 0.000000
1.000000 0.000000 0.000000
0.000000 0.018041 0.000000
0.346608 0.023655 0.000000
0.565384 0.042761 0.000000
0.683730 0.069711 0.000000
0.760329 0.108316 0.000000
0.810555 0.146015 0.000000
0.849178 0.189082 0.000000
0.879601 0.232792 0.000000
0.905071 0.274603 0.000000
0.928968 0.307075 0.000000
0.952369 0.330555 0.000000
0.976346 0.346608 0.000000
1.000000 0.351476 0.000000
0.000000 0.036957 0.000000
0.330555 0.047631 0.000000
0.543515 0.081944 0.000000
0.659274 0.132284 0.000000
0.729132 0.198777 0.000000
0.778366 0.264067 0.000000
0.809996 0.335703 0.000000
0.835892 0.401162 0.000000
0.857943 0.462431 0.000000
0.885859 0.508752 0.000000
0.918056 0.543515 0.000000
0.957239 0.565384 0.000000
1.000000 0.573174 0.000000
0.000000 0.056480 0.000000
0.307075 0.071032 0.000000
0.508752 0.114141 0.000000
0.618398 0.181373 0.000000
0.680563 0.263063 0.000000
0.720333 0.342935 0.000000
0.740490 0.425253 0.000000
0.761240 0.497654 0.000000
0.781093 0.564983 0.000000
0.818627 0.618398 0.000000
0.867716 0.659274 0.000000
0.930290 0.683730 0.000000
1.000000 0.693701 0.000000
0.000000 0.077844 0.000000
0.274603 0.094929 0.000000
0.462431 0.142057 0.000000
0.564983 0.218907 0.000000
0.622326 0.309756 0.000000
0.650205 0.397045 0.000000
0.658648 0.481601 0.000000
0.673744 0.555544 0.000000
0.690244 0.622326 0.000000
0.736937 0.680563 0.000000
0.801223 0.729132 0.000000
0.891684 0.760329 0.000000
1.000000 0.774499 0.000000
0.000000 0.102391 0.000000
0.232792 0.120399 0.000000
0.401162 0.164108 0.000000
0.497654 0.238760 0.000000
0.555544 0.326256 0.000000
0.575945 0.411779 0.000000
0.580065 0.495634 0.000000
0.588221 0.575945 0.000000
0.602955 0.650205 0.000000
0.657065 0.720333 0.000000
0.735933 0.778366 0.000000
0.853986 0.810555 0.000000
1.000000 0.825647 0.000000
0.000000 0.133618 0.000000
0.189082 0.150822 0.000000
0.335703 0.190004 0.000000
0.425253 0.259510 0.000000
0.481601 0.341352 0.000000
0.495634 0.419935 0.000000
0.500000 0.500000 0.000000
0.504366 0.580065 0.000000
0.518399 0.658648 0.000000
0.574747 0.740490 0.000000
0.664297 0.809996 0.000000
0.810919 0.849178 0.000000
1.000000 0.866382 0.000000
0.000000 0.174353 0.000000
0.146015 0.189445 0.000000
0.264067 0.221634 0.000000
0.342935 0.279667 0.000000
0.397045 0.349795 0.000000
0.411779 0.424055 0.000000
0.419935 0.504366 0.000000
0.424055 0.588221 0.000000
0.444456 0.673744 0.000000
0.502346 0.761240 0.000000
0.598838 0.835892 0.000000
0.767209 0.879601 0.000000
1.000000 0.897609 0.000000
0.000000 0.225501 0.000000
0.108316 0.239671 0.000000
0.198777 0.270868 0.000000
0.263063 0.319437 0.000000
0.309755 0.377674 0.000000
0.326256 0.444456 0.000000
0.341352 0.518399 0.000000
0.349795 0.602955 0.000000
0.377674 0.690245 0.000000
0.435017 0.781093 0.000000
0.537569 0.857943 0.000000
0.725398 0.905071 0.000000
1.000000 0.922156 0.000000
0.000000 0.306299 0.000000
0.069711 0.316270 0.000000
0.132284 0.340726 0.000000
0.181373 0.381602 0.000000
0.218907 0.435017 0.000000
0.238760 0.502346 0.000000
0.259510 0.574747 0.000000
0.279667 0.657065 0.000000
0.319437 0.736937 0.000000
0.381602 0.818627 0.000000
0.491248 0.885859 0.000000
0.692926 0.928968 0.000000
1.000000 0.943520 0.000000
0.000000 0.426826 0.000000
0.042761 0.434616 0.000000
0.081944 0.456485 0.000000
0.114141 0.491248 0.000000
0.142057 0.537569 0.000000
0.164108 0.598838 0.000000
0.190004 0.664297 0.000000
0.221634 0.735933 0.000000
0.270868 0.801223 0.000000
0.340726 0.867716 0.000000
0.456485 0.918056 0.000000
0.669446 0.952369 0.000000
1.000000 0.963043 0.000000
0.000000 0.648525 0.000000
0.023655 0.653393 0.000000
0.047631 0.669446 0.000000
0.071032 0.692926 0.000000
0.094929 0.725398 0.000000
0.120399 0.767209 0.000000
0.150822 0.810919 0.000000
0.189445 0.853986 0.000000
0.239671 0.891685 0.000000
0.316270 0.930290 0.000000
0.434616 0.957239 0.000000
0.653393 0.976346 0.000000
1.000000 0.981959 0.000000
0.000000 1.000000 0.000000
0.018041 1.000000 0.000000
0.036957 1.000000 0.000000
0.056480 1.000000 0.000000
0.077844 1.000000 0.000000
0.102391 1.000000 0.000000
0.133618 1.000000 0.000000
0.174353 1.000000 0.000000
0.225501 1.000000 0.000000
0.306299 1.000000 0.000000
0.426826 1.000000 0.000000
0.648525 1.000000 0.000000
1.000000 1.000000 0.000000
0.000000 0.000000 0.082500
0.351476 0.000000 0.082500
0.573174 0.000000 0.082500
0.693701 0.000000 0.082500
0.774499 0.000000 0.082500
0.825647 0.000000 0.082500
0.866382 0.000000 0.082500
0.897609 0.000000 0.082500
0.922156 0.000000 0.082500
0.943520 0.000000 0.082500
0.963043 0.000000 0.082500
0.981959 0.000000 0.082500
1.000000 0.000000 0.082500
0.000000 0.018041 0.082500
0.346608 0.023655 0.082500
0.565384 0.042761 0.082500
0.683730 0.069711 0.082500
0.760329 0.108316 0.082500
0.810555 0.146015 0.082500
0.849178 0.189082 0.082500
0.879601 0.232792 0.082500
0.905071 0.274603 0.082500
0.928968 0.307075 0.082500
0.952369 0.330555 0.082500
0.976346 0.346608 0.082500
1.000000 0.351476 0.082500
0.000000 0.036957 0.082500
0.330555 0.047631 0.082500
0.543515 0.081944 0.082500
0.659274 0.132284 0.082500
0.729132 0.198777 0.082500
0.778366 0.264067 0.082500
0.809996 0.335703 0.082500
0.835892 0.401162 0.082500
0.857943 0.462431 0.082500
0.885859 0.508752 0.082500
0.918056 0.543515 0.082500
0.957239 0.565384 0.082500
1.000000 0.573174 0.082500
0.000000 0.056480 0.082500
0.307075 0.071032 0.082500
0.508752 0.114141 0.082500
0.618398 0.181373 0.082500
0.680563 0.263063 0.082500
0.720333 0.342935 0.082500
0.740490 0.425253 0.082500
0.761240 0.497654 0.082500
0.781093 0.564983 0.082500
0.818627 0.618398 0.082500
0.867716 0.659274 0.082500
0.930290 0.683730 0.082500
1.000000 0.693701 0.082500
0.000000 0.077844 0.082500
0.274603 0.094929 0.082500
0.462431 0.142057 0.082500
0.564983 0.218907 0.082500
0.622326 0.309756 0.082500
0.650205 0.397045 0.082500
0.658648 0.481601 0.082500
0.673744 0.555544 0.082500
0.690244 0.622326 0.082500
0.736937 0.680563 0.082500
0.801223 0.729132 0.082500
0.891684 0.760329 0.082500
1.000000 0.774499 0.082500
0.000000 0.102391 0.082500
0.232792 0.120399 0.082500
0.401162 0.164108 0.082500
0.497654 0.238760 0.082500
0.555544 0.326256 0.082500
0.575945 0.411779 0.082500
0.580065 0.495634 0.082500
0.588221 0.575945 0.082500
0.602955 0.650205 0.082500
0.657065 0.720333 0.082500
0.735933 0.778366 0.082500
0.853986 0.810555 0.082500
1.000000 0.825647 0.082500
0.000000 0.133618 0.082500
0.189082 0.150822 0.082500
0.335703 0.190004 0.082500
0.425253 0.259510 0.082500
0.481601 0.341352 0.082500
0.495634 0.419935 0.082500
0.500000 0.500000 0.082500
0.504366 0.580065 0.082500
0.518399 0.658648 0.082500
0.574747 0.740490 0.082500
0.664297 0.809996 0.082500
0.810919 0.849178 0.082500
1.000000 0.866382 0.082500
0.000000 0.174353 0.082500
0.146015 0.189445 0.082500
0.264067 0.221634 0.082500
0.342935 0.279667 0.082500
0.397045 0.349795 0.082500
0.411779 0.424055 0.082500
0.419935 0.504366 0.082500
0.424055 0.588221 0.082500
0.444456 0.673744 0.082500
0.502346 0.761240 0.082500
0.598838 0.835892 0.082500
0.767209 0.879601 0.082500
1.000000 0.897609 0.082500
0.000000 0.225501 0.082500
0.108316 0.239671 0.082500
0.198777 0.270868 0.082500
0.263063 0.319437 0.082500
0.309755 0.377674 0.082500
0.326256 0.444456 0.082500
0.341352 0.518399 0.082500
0.349795 0.602955 0.082500
0.377674 0.690245 0.082500
0.435017 0.781093 0.082500
0.537569 0.857943 0.082500
0.725398 0.905071 0.082500
1.000000 0.922156 0.082500
0.000000 0.306299 0.082500
0.069711 0.316270 0.082500
0.132284 0.340726 0.082500
0.181373 0.381602 0.082500
0.218907 0.435017 0.082500
0.238760 0.502346 0.082500
0.259510 0.574747 0.082500
0.279667 0.657065 0.082500
0.319437 0.736937 0.082500
0.381602 0.818627 0.082500
0.491248 0.885859 0.082500
0.692926 0.928968 0.082500
1.000000 0.943520 0.082500
0.000000 0.426826 0.082500
0.042761 0.434616 0.082500
0.081944 0.456485 0.082500
0.114141 0.491248 0.082500
0.142057 0.537569 0.082500
0.164108 0.598838 0.082500
0.190004 0.664297 0.082500
0.221634 0.735933 0.082500
0.270868 0.801223 0.082500
0.340726 0.867716 0.082500
0.456485 0.918056 0.082500
0.669446 0.952369 0.082500
1.000000 0.963043 0.082500
0.000000 0.648525 0.082500
0.023655 0.653393 0.082500
0.047631 0.669446 0.082500
0.071032 0.692926 0.082500
0.094929 0.725398 0.082500
0.120399 0.767209 0.082500
0.150822 0.810919 0.082500
0.189445 0.853986 0.082500
0.239671 0.891685 0.082500
0.316270 0.930290 0.082500
0.434616 0.957239 0.082500
0.653393 0.976346 0.082500
1.000000 0.981959 0.082500
0.000000 1.000000 0.082500
0.018041 1.000000 0.082500
0.036957 1.000000 0.082500
0.056480 1.000000 0.082500
0.077844 1.000000 0.082500
0.102391 1.000000 0.082500
0.133618 1.000000 0.082500
0.174353 1.000000 0.082500
0.225501 1.000000 0.082500
0.306299 1.000000 0.082500
0.426826 1.000000 0.082500
0.648525 1.000000 0.082500
1.000000 1.000000 0.082500
0.000000 0.000000 0.165000
0.351476 0.000000 0.165000
0.573174 0.000000 0.165000
0.693701 0.000000 0.165000
0.774499 0.000000 0.165000
0.825647 0.000000 0.165000
0.866382 0.000000 0.165000
0.897609 0.000000 0.165000
0.922156 0.000000 0.165000
0.943520 0.000000 0.165000
0.963043 0.000000 0.165000
0.981959 0.000000 0.165000
1.000000 0.000000 0.165000
0.000000 0.018041 0.165000
0.346608 0.023655 0.165000
0.565384 0.042761 0.165000
0.683730 0.069711 0.165000
0.760329 0.108316 0.165000
0.810555 0.146015 0.165000
0.849178 0.189082 0.165000
0.879601 0.232792 0.165000
0.905071 0.274603 0.165000
0.928968 0.307075 0.165000
0.952369 0.330555 0.165000
0.976346 0.346608 0.165000
1.000000 0.351476 0.165000
0.000000 0.036957 0.165000
0.330555 0.047631 0.165000
[...]
POINT_DATA 845 
VECTORS pos float 
0.000000 0.000000 0.000000
0.351476 0.000000 0.000000
0.573174 0.000000 0.000000
0.693701 0.000000 0.000000
0.774499 0.000000 0.000000
0.825647 0.000000 0.000000
0.866382 0.000000 0.000000
0.897609 0.000000 0.000000
0.922156 0.000000 0.000000
0.943520 0.000000 0.000000
0.963043 0.000000 0.000000
0.981959 0.000000 0.000000
1.000000 0.000000 0.000000
0.000000 0.018041 0.000000
0.346608 0.023655 0.000000
0.565384 0.042761 0.000000
0.683730 0.069711 0.000000
0.760329 0.108316 0.000000
0.810555 0.146015 0.000000
0.849178 0.189082 0.000000
0.879601 0.232792 0.000000
0.905071 0.274603 0.000000
0.928968 0.307075 0.000000
0.952369 0.330555 0.000000
0.976346 0.346608 0.000000
1.000000 0.351476 0.000000
0.000000 0.036957 0.000000
0.330555 0.047631 0.000000
0.543515 0.081944 0.000000
0.659274 0.132284 0.000000
0.729132 0.198777 0.000000
0.778366 0.264067 0.000000
0.809996 0.335703 0.000000
0.835892 0.401162 0.000000
0.857943 0.462431 0.000000
0.885859 0.508752 0.000000
0.918056 0.543515 0.000000
0.957239 0.565384 0.000000
1.000000 0.573174 0.000000
0.000000 0.056480 0.000000
0.307075 0.071032 0.000000
0.508752 0.114141 0.000000
0.618398 0.181373 0.000000
0.680563 0.263063 0.000000
0.720333 0.342935 0.000000
0.740490 0.425253 0.000000
0.761240 0.497654 0.000000
0.781093 0.564983 0.000000
0.818627 0.618398 0.000000
0.867716 0.659274 0.000000
0.930290 0.683730 0.000000
1.000000 0.693701 0.000000
0.000000 0.077844 0.000000
0.274603 0.094929 0.000000
0.462431 0.142057 0.000000
0.564983 0.218907 0.000000
0.622326 0.309756 0.000000
0.650205 0.397045 0.000000
0.658648 0.481601 0.000000
0.673744 0.555544 0.000000
0.690244 0.622326 0.000000
0.736937 0.680563 0.000000
0.801223 0.729132 0.000000
0.891684 0.760329 0.000000
1.000000 0.774499 0.000000
0.000000 0.102391 0.000000
0.232792 0.120399 0.000000
0.401162 0.164108 0.000000
0.497654 0.238760 0.000000
0.555544 0.326256 0.000000
0.575945 0.411779 0.000000
0.580065 0.495634 0.000000
0.588221 0.575945 0.000000
0.602955 0.650205 0.000000
0.657065 0.720333 0.000000
0.735933 0.778366 0.000000
0.853986 0.810555 0.000000
1.000000 0.825647 0.000000
0.000000 0.133618 0.000000
0.189082 0.150822 0.000000
0.335703 0.190004 0.000000
0.425253 0.259510 0.000000
0.481601 0.341352 0.000000
0.495634 0.419935 0.000000
0.500000 0.500000 0.000000
0.504366 0.580065 0.000000
0.518399 0.658648 0.000000
0.574747 0.740490 0.000000
0.664297 0.809996 0.000000
0.810919 0.849178 0.000000
1.000000 0.866382 0.000000
0.000000 0.174353 0.000000
0.146015 0.189445 0.000000
0.264067 0.221634 0.000000
0.342935 0.279667 0.000000
0.397045 0.349795 0.000000
0.411779 0.424055 0.000000
0.419935 0.504366 0.000000
0.424055 0.588221 0.000000
0.444456 0.673744 0.000000
0.502346 0.761240 0.000000
0.598838 0.835892 0.000000
0.767209 0.879601 0.000000
1.000000 0.897609 0.000000
0.000000 0.225501 0.000000
0.108316 0.239671 0.000000
0.198777 0.270868 0.000000
0.263063 0.319437 0.000000
0.309755 0.377674 0.000000
0.326256 0.444456 0.000000
0.341352 0.518399 0.000000
0.349795 0.602955 0.000000
0.377674 0.690245 0.000000
0.435017 0.781093 0.000000
0.537569 0.857943 0.000000
0.725398 0.905071 0.000000
1.000000 0.922156 0.000000
0.000000 0.306299 0.000000
0.069711 0.316270 0.000000
0.132284 0.340726 0.000000
0.181373 0.381602 0.000000
0.218907 0.435017 0.000000
0.238760 0.502346 0.000000
0.259510 0.574747 0.000000
0.279667 0.657065 0.000000
0.319437 0.736937 0.000000
0.381602 0.818627 0.000000
0.491248 0.885859 0.000000
0.692926 0.928968 0.000000
1.000000 0.943520 0.000000
0.000000 0.426826 0.000000
0.042761 0.434616 0.000000
0.081944 0.456485 0.000000
0.114141 0.491248 0.000000
0.142057 0.537569 0.000000
0.164108 0.598838 0.000000
0.190004 0.664297 0.000000
0.221634 0.735933 0.000000
0.270868 0.801223 0.000000
0.340726 0.867716 0.000000
0.456485 0.918056 0.000000
0.669446 0.952369 0.000000
1.000000 0.963043 0.000000
0.000000 0.648525 0.000000
0.023655 0.653393 0.000000
0.047631 0.669446 0.000000
0.071032 0.692926 0.000000
0.094929 0.725398 0.000000
0.120399 0.767209 0.000000
0.150822 0.810919 0.000000
0.189445 0.853986 0.000000
0.239671 0.891685 0.000000
0.316270 0.930290 0.000000
0.434616 0.957239 0.000000
0.653393 0.976346 0.000000
1.000000 0.981959 0.000000
0.000000 1.000000 0.000000
0.018041 1.000000 0.000000
0.036957 1.000000 0.000000
0.056480 1.000000 0.000000
0.077844 1.000000 0.000000
0.102391 1.000000 0.000000
0.133618 1.000000 0.000000
0.174353 1.000000 0.000000
0.225501 1.000000 0.000000
0.306299 1.000000 0.000000
0.426826 1.000000 0.000000
0.648525 1.000000 0.000000
1.000000 1.000000 0.000000
0.000000 0.000000 0.082500
0.351476 0.000000 0.082500
0.573174 0.000000 0.082500
0.693701 0.000000 0.082500
0.774499 0.000000 0.082500
0.825647 0.000000 0.082500
0.866382 0.000000 0.082500
0.897609 0.000000 0.082500
0.922156 0.000000 0.082500
0.943520 0.000000 0.082500
0.963043 0.000000 0.082500
0.981959 0.000000 0.082500
1.000000 0.000000 0.082500
0.000000 0.018041 0.082500
0.346608 0.023655 0.082500
0.565384 0.042761 0.082500
0.683730 0.069711 0.082500
0.760329 0.108316 0.082500
0.810555 0.146015 0.082500
0.849178 0.189082 0.082500
0.879601 0.232792 0.082500
0.905071 0.274603 0.082500
0.928968 0.307075 0.082500
0.952369 0.330555 0.082500
0.976346 0.346608 0.082500
1.000000 0.351476 0.082500
0.000000 0.036957 0.082500
0.330555 0.047631 0.082500
0.543515 0.081944 0.082500
0.659274 0.132284 0.082500
0.729132 0.198777 0.082500
0.778366 0.264067 0.082500
0.809996 0.335703 0.082500
0.835892 0.401162 0.082500
0.857943 0.462431 0.082500
0.885859 0.508752 0.082500
0.918056 0.543515 0.082500
0.957239 0.565384 0.082500
1.000000 0.573174 0.082500
0.000000 0.056480 0.082500
0.307075 0.071032 0.082500
0.508752 0.114141 0.082500
0.618398 0.181373 0.082500
0.680563 0.263063 0.082500
0.720333 0.342935 0.082500
0.740490 0.425253 0.082500
0.761240 0.497654 0.082500
0.781093 0.564983 0.082500
0.818627 0.618398 0.082500
0.867716 0.659274 0.082500
0.930290 0.683730 0.082500
1.000000 0.693701 0.082500
0.000000 0.077844 0.082500
0.274603 0.094929 0.082500
0.462431 0.142057 0.082500
0.564983 0.218907 0.082500
0.622326 0.309756 0.082500
0.650205 0.397045 0.082500
0.658648 0.481601 0.082500
0.673744 0.555544 0.082500
0.690244 0.622326 0.082500
0.736937 0.680563 0.082500
0.801223 0.729132 0.082500
0.891684 0.760329 0.082500
1.000000 0.774499 0.082500
0.000000 0.102391 0.082500
0.232792 0.120399 0.082500
0.401162 0.164108 0.082500
0.497654 0.238760 0.082500
0.555544 0.326256 0.082500
0.575945 0.411779 0.082500
0.580065 0.495634 0.082500
0.588221 0.575945 0.082500
0.602955 0.650205 0.082500
0.657065 0.720333 0.082500
0.735933 0.778366 0.082500
0.853986 0.810555 0.082500
1.000000 0.825647 0.082500
0.000000 0.133618 0.082500
0.189082 0.150822 0.082500
0.335703 0.190004 0.082500
0.425253 0.259510 0.082500
0.481601 0.341352 0.082500
0.495634 0.419935 0.082500
0.500000 0.500000 0.082500
0.504366 0.580065 0.082500
0.518399 0.658648 0.082500
0.574747 0.740490 0.082500
0.664297 0.809996 0.082500
0.810919 0.849178 0.082500
1.000000 0.866382 0.082500
0.000000 0.174353 0.082500
0.146015 0.189445 0.082500
0.264067 0.221634 0.082500
0.342935 0.279667 0.082500
0.397045 0.349795 0.082500
0.411779 0.424055 0.082500
0.419935 0.504366 0.082500
0.424055 0.588221 0.082500
0.444456 0.673744 0.082500
0.502346 0.761240 0.082500
0.598838 0.835892 0.082500
0.767209 0.879601 0.082500
1.000000 0.897609 0.082500
0.000000 0.225501 0.082500
0.108316 0.239671 0.082500
0.198777 0.270868 0.082500
0.263063 0.319437 0.082500
0.309755 0.377674 0.082500
0.326256 0.444456 0.082500
0.341352 0.518399 0.082500
0.349795 0.602955 0.082500
0.377674 0.690245 0.082500
0.435017 0.781093 0.082500
0.537569 0.857943 0.082500
0.725398 0.905071 0.082500
1.000000 0.922156 0.082500
0.000000 0.306299 0.082500
0.069711 0.316270 0.082500
0.132284 0.340726 0.082500
0.181373 0.381602 0.082500
0.218907 0.435017 0.082500
0.238760 0.502346 0.082500
0.259510 0.574747 0.082500
0.279667 0.657065 0.082500
0.319437 0.736937 0.082500
0.381602 0.818627 0.082500
0.491248 0.885859 0.082500
0.692926 0.928968 0.082500
1.000000 0.943520 0.082500
0.000000 0.426826 0.082500
0.042761 0.434616 0.082500
0.081944 0.456485 0.082500
0.114141 0.491248 0.082500
0.142057 0.537569 0.082500
0.164108 0.598838 0.082500
0.190004 0.664297 0.082500
0.221634 0.735933 0.082500
0.270868 0.801223 0.082500
0.340726 0.867716 0.082500
0.456485 0.918056 0.082500
0.669446 0.952369 0.082500
1.000000 0.963043 0.082500
0.000000 0.648525 0.082500
0.023655 0.653393 0.082500
0.047631 0.669446 0.082500
0.071032 0.692926 0.082500
0.094929 0.725398 0.082500
0.120399 0.767209 0.082500
0.150822 0.810919 0.082500
0.189445 0.853986 0.082500
0.239671 0.891685 0.082500
0.316270 0.930290 0.082500
0.434616 0.957239 0.082500
0.653393 0.976346 0.082500
1.000000 0.981959 0.082500
0.000000 1.000000 0.082500
0.018041 1.000000 0.082500
0.036957 1.000000 0.082500
0.056480 1.000000 0.082500
0.077844 1.000000 0.082500
0.102391 1.000000 0.082500
0.133618 1.000000 0.082500
0.174353 1.000000 0.082500
0.225501 1.000000 0.082500
0.306299 1.000000 0.082500
0.426826 1.000000 0.082500
0.648525 1.000000 0.082500
1.000000 1.000000 0.082500
0.000000 0.000000 0.165000
0.351476 0.000000 0.165000
0.573174 0.000000 0.165000
0.693701 0.000000 0.165000
0.774499 0.000000 0.165000
0.825647 0.000000 0.165000
0.866382 0.000000 0.165000
0.897609 0.000000 0.165000
0.922156 0.000000 0.165000
0.943520 0.000000 0.165000
0.963043 0.000000 0.165000
0.981959 0.000000 0.165000
1.000000 0.000000 0.165000
0.000000 0.018041 0.165000
0.346608 0.023655 0.165000
0.565384 0.042761 0.165000
0.683730 0.069711 0.165000
0.760329 0.108316 0.165000
0.810555 0.146015 0.165000
0.849178 0.189082 0.165000
0.879601 0.232792 0.165000
0.905071 0.274603 0.165000
0.928968 0.307075 0.165000
0.952369 0.330555 0.165000
0.976346 0.346608 0.165000
1.000000 0.351476 0.165000
0.000000 0.036957 0.165000
0.330555 0.047631 0.165000
0.543515 0.081944 0.165000
0.659274 0.132284 0.165000
0.729132 0.198777 0.165000
0.778366 0.264067 0.165000
0.809996 0.335703 0.165000
0.835892 0.401162 0.165000
0.857943 0.462431 0.165000
0.885859 0.508752 0.165000
0.918056 0.543515 0.165000
0.957239 0.565384 0.165000
1.000000 0.573174 0.165000
0.000000 0.056480 0.165000
0.307075 0.071032 0.165000
0.508752 0.114141 0.165000
0.618398 0.181373 0.165000
0.680563 0.263063 0.165000
0.720333 0.342935 0.165000
0.740490 0.425253 0.165000
0.761240 0.497654 0.165000
0.781093 0.564983 0.165000
0.818627 0.618398 0.165000
0.867716 0.659274 0.165000
0.930290 0.683730 0.165000
1.000000 0.693701 0.165000
0.000000 0.077844 0.165000
0.274603 0.094929 0.165000
0.462431 0.142057 0.165000
0.564983 0.218907 0.165000
0.622326 0.309756 0.165000
0.650205 0.397045 0.165000
0.658648 0.481601 0.165000
0.673744 0.555544 0.165000
0.690244 0.622326 0.165000
0.736937 0.680563 0.165000
0.801223 0.729132 0.165000
0.891684 0.760329 0.165000
1.000000 0.774499 0.165000
0.000000 0.102391 0.165000
0.232792 0.120399 0.165000
0.401162 0.164108 0.165000
0.497654 0.238760 0.165000
0.555544 0.326256 0.165000
0.575945 0.411779 0.165000
0.580065 0.495634 0.165000
0.588221 0.575945 0.165000
0.602955 0.650205 0.165000
0.657065 0.720333 0.165000
0.735933 0.778366 0.165000
0.853986 0.810555 0.165000
1.000000 0.825647 0.165000
0.000000 0.133618 0.165000
0.189082 0.150822 0.165000
0.335703 0.190004 0.165000
0.425253 0.259510 0.165000
0.481601 0.341352 0.165000
0.495634 0.419935 0.165000
0.500000 0.500000 0.165000
0.504366 0.580065 0.165000
0.518399 0.658648 0.165000
0.574747 0.740490 0.165000
0.664297 0.809996 0.165000
0.810919 0.849178 0.165000
1.000000 0.866382 0.165000
0.000000 0.174353 0.165000
0.146015 0.189445 0.165000
0.264067 0.221634 0.165000
0.342935 0.279667 0.165000
0.397045 0.349795 0.165000
0.411779 0.424055 0.165000
0.419935 0.504366 0.165000
0.424055 0.588221 0.165000
0.444456 0.673744 0.165000
0.502346 0.761240 0.165000
0.598838 0.835892 0.165000
0.767209 0.879601 0.165000
1.000000 0.897609 0.165000
0.000000 0.225501 0.165000
0.108316 0.239671 0.165000
0.198777 0.270868 0.165000
0.263063 0.319437 0.165000
0.309755 0.377674 0.165000
0.326256 0.444456 0.165000
0.341352 0.518399 0.165000
0.349795 0.602955 0.165000
0.377674 0.690245 0.165000
0.435017 0.781093 0.165000
0.537569 0.857943 0.165000
0.725398 0.905071 0.165000
1.000000 0.922156 0.165000
0.000000 0.306299 0.165000
0.069711 0.316270 0.165000
0.132284 0.340726 0.165000
0.181373 0.381602 0.165000
0.218907 0.435017 0.165000
0.238760 0.502346 0.165000
0.259510 0.574747 0.165000
0.279667 0.657065 0.165000
0.319437 0.736937 0.165000
0.381602 0.818627 0.165000
0.491248 0.885859 0.165000
0.692926 0.928968 0.165000
1.000000 0.943520 0.165000
0.000000 0.426826 0.165000
0.042761 0.434616 0.165000
0.081944 0.456485 0.165000
0.114141 0.491248 0.165000
0.142057 0.537569 0.165000
0.164108 0.598838 0.165000
0.190004 0.664297 0.165000
0.221634 0.735933 0.165000
0.270868 0.801223 0.165000
0.340726 0.867716 0.165000
0.456485 0.918056 0.165000
0.669446 0.952369 0.165000
1.000000 0.963043 0.165000
0.000000 0.648525 0.165000
0.023655 0.653393 0.165000
0.047631 0.669446 0.165000
0.071032 0.692926 0.165000
0.094929 0.725398 0.165000
0.120399 0.767209 0.165000
0.150822 0.810919 0.165000
0.189445 0.853986 0.165000
0.239671 0.891685 0.165000
0.316270 0.930290 0.165000
0.434616 0.957239 0.165000
0.653393 0.976346 0.165000
1.000000 0.981959 0.165000
0.000000 1.000000 0.165000
0.018041 1.000000 0.165000
0.036957 1.000000 0.165000
0.056480 1.000000 0.165000
0.077844 1.000000 0.165000
0.102391 1.000000 0.165000
0.133618 1.000000 0.165000
0.174353 1.000000 0.165000
0.225501 1.000000 0.165000
0.306299 1.000000 0.165000
0.426826 1.000000 0.165000
0.648525 1.000000 0.165000
1.000000 1.000000 0.165000
0.000000 0.000000 0.247500
0.351476 0.000000 0.247500
0.573174 0.000000 0.247500
0.693701 0.000000 0.247500
0.774499 0.000000 0.247500
0.825647 0.000000 0.247500
0.866382 0.000000 0.247500
0.897609 0.000000 0.247500
0.922156 0.000000 0.247500
0.943520 0.000000 0.247500
0.963043 0.000000 0.247500
0.981959 0.000000 0.247500
1.000000 0.000000 0.247500
0.000000 0.018041 0.247500
0.346608 0.023655 0.247500
0.565384 0.042761 0.247500
0.683730 0.069711 0.247500
0.760329 0.108316 0.247500
0.810555 0.146015 0.247500
0.849178 0.189082 0.247500
0.879601 0.232792 0.247500
0.905071 0.274603 0.247500
0.928968 0.307075 0.247500
0.952369 0.330555 0.247500
0.976346 0.346608 0.247500
1.000000 0.351476 0.247500
0.000000 0.036957 0.247500
0.330555 0.047631 0.247500
0.543515 0.081944 0.247500
0.659274 0.132284 0.247500
0.729132 0.198777 0.247500
0.778366 0.264067 0.247500
0.809996 0.335703 0.247500
0.835892 0.401162 0.247500
0.857943 0.462431 0.247500
0.885859 0.508752 0.247500
0.918056 0.543515 0.247500
0.957239 0.565384 0.247500
1.000000 0.573174 0.247500
0.000000 0.056480 0.247500
0.307075 0.071032 0.247500
0.508752 0.114141 0.247500
0.618398 0.181373 0.247500
0.680563 0.263063 0.247500
0.720333 0.342935 0.247500
0.740490 0.425253 0.247500
0.761240 0.497654 0.247500
0.781093 0.564983 0.247500
0.818627 0.618398 0.247500
0.867716 0.659274 0.247500
0.930290 0.683730 0.247500
1.000000 0.693701 0.247500
0.000000 0.077844 0.247500
0.274603 0.094929 0.247500
0.462431 0.142057 0.247500
0.564983 0.218907 0.247500
0.622326 0.309756 0.247500
0.650205 0.397045 0.247500
0.658648 0.481601 0.247500
0.673744 0.555544 0.247500
0.690244 0.622326 0.247500
0.736937 0.680563 0.247500
0.801223 0.729132 0.247500
0.891684 0.760329 0.247500
1.000000 0.774499 0.247500
0.000000 0.102391 0.247500
0.232792 0.120399 0.247500
0.401162 0.164108 0.247500
0.497654 0.238760 0.247500
0.555544 0.326256 0.247500
0.575945 0.411779 0.247500
0.580065 0.495634 0.247500
0.588221 0.575945 0.247500
0.602955 0.650205 0.247500
0.657065 0.720333 0.247500
0.735933 0.778366 0.247500
0.853986 0.810555 0.247500
1.000000 0.825647 0.247500
0.000000 0.133618 0.247500
0.189082 0.150822 0.247500
0.335703 0.190004 0.247500
0.425253 0.259510 0.247500
0.481601 0.341352 0.247500
0.495634 0.419935 0.247500
0.500000 0.500000 0.247500
0.504366 0.580065 0.247500
0.518399 0.658648 0.247500
0.574747 0.740490 0.247500
0.664297 0.809996 0.247500
0.810919 0.849178 0.247500
1.000000 0.866382 0.247500
0.000000 0.174353 0.247500
0.146015 0.189445 0.247500
0.264067 0.221634 0.247500
0.342935 0.279667 0.247500
0.397045 0.349795 0.247500
0.411779 0.424055 0.247500
0.419935 0.504366 0.247500
0.424055 0.588221 0.247500
0.444456 0.673744 0.247500
0.502346 0.761240 0.247500
0.598838 0.835892 0.247500
0.767209 0.879601 0.247500
1.000000 0.897609 0.247500
0.000000 0.225501 0.247500
0.108316 0.239671 0.247500
0.198777 0.270868 0.247500
0.263063 0.319437 0.247500
0.309755 0.377674 0.247500
0.326256 0.444456 0.247500
0.341352 0.518399 0.247500
0.349795 0.602955 0.247500
0.377674 0.690245 0.247500
0.435017 0.781093 0.247500
0.537569 0.857943 0.247500
0.725398 0.905071 0.247500
1.000000 0.922156 0.247500
0.000000 0.306299 0.247500
0.069711 0.316270 0.247500
0.132284 0.340726 0.247500
0.181373 0.381602 0.247500
0.218907 0.435017 0.247500
0.238760 0.502346 0.247500
0.259510 0.574747 0.247500
0.279667 0.657065 0.247500
0.319437 0.736937 0.247500
0.381602 0.818627 0.247500
0.491248 0.885859 0.247500
0.692926 0.928968 0.247500
1.000000 0.943520 0.247500
0.000000 0.426826 0.247500
0.042761 0.434616 0.247500
0.081944 0.456485 0.247500
0.114141 0.491248 0.247500
0.142057 0.537569 0.247500
0.164108 0.598838 0.247500
0.190004 0.664297 0.247500
0.221634 0.735933 0.247500
0.270868 0.801223 0.247500
0.340726 0.867716 0.247500
0.456485 0.918056 0.247500
0.669446 0.952369 0.247500
1.000000 0.963043 0.247500
0.000000 0.648525 0.247500
0.023655 0.653393 0.247500
0.047631 0.669446 0.247500
0.071032 0.692926 0.247500
0.094929 0.725398 0.247500
0.120399 0.767209 0.247500
0.150822 0.810919 0.247500
0.189445 0.853986 0.247500
0.239671 0.891685 0.247500
0.316270 0.930290 0.247500
0.434616 0.957239 0.247500
0.653393 0.976346 0.247500
1.000000 0.981959 0.247500
0.000000 1.000000 0.247500
0.018041 1.000000 0.247500
0.036957 1.000000 0.247500
0.056480 1.000000 0.247500
0.077844 1.000000 0.247500
0.102391 1.000000 0.247500
0.133618 1.000000 0.247500
0.174353 1.000000 0.247500
0.225501 1.000000 0.247500
0.306299 1.000000 0.247500
0.426826 1.000000 0.247500
0.648525 1.000000 0.247500
1.000000 1.000000 0.247500
0.000000 0.000000 0.330000
0.351476 0.000000 0.330000
0.573174 0.000000 0.330000
0.693701 0.000000 0.330000
0.774499 0.000000 0.330000
0.825647 0.000000 0.330000
0.866382 0.000000 0.330000
0.897609 0.000000 0.330000
0.922156 0.000000 0.330000
0.943520 0.000000 0.330000
0.963043 0.000000 0.330000
0.981959 0.000000 0.330000
1.000000 0.000000 0.330000
0.000000 0.018041 0.330000
0.346608 0.023655 0.330000
0.565384 0.042761 0.330000
0.683730 0.069711 0.330000
0.760329 0.108316 0.330000
0.810555 0.146015 0.330000
0.849178 0.189082 0.330000
0.879601 0.232792 0.330000
0.905071 0.274603 0.330000
0.928968 0.307075 0.330000
0.952369 0.330555 0.330000
0.976346 0.346608 0.330000
1.000000 0.351476 0.330000
0.000000 0.036957 0.330000
0.330555 0.047631 0.330000
0.543515 0.081944 0.330000
0.659274 0.132284 0.330000
0.729132 0.198777 0.330000
0.778366 0.264067 0.330000
0.809996 0.335703 0.330000
0.835892 0.401162 0.330000
0.857943 0.462431 0.330000
0.885859 0.508752 0.330000
0.918056 0.543515 0.330000
0.957239 0.565384 0.330000
1.000000 0.573174 0.330000
0.000000 0.056480 0.330000
0.307075 0.071032 0.330000
0.508752 0.114141 0.330000
0.618398 0.181373 0.330000
0.680563 0.263063 0.330000
0.720333 0.342935 0.330000
0.740490 0.425253 0.330000
0.761240 0.497654 0.330000
0.781093 0.564983 0.330000
0.818627 0.618398 0.330000
0.867716 0.659274 0.330000
0.930290 0.683730 0.330000
1.000000 0.693701 0.330000
0.000000 0.077844 0.330000
0.274603 0.094929 0.330000
0.462431 0.142057 0.330000
0.564983 0.218907 0.330000
0.622326 0.309756 0.330000
0.650205 0.397045 0.330000
0.658648 0.481601 0.330000
0.673744 0.555544 0.330000
0.690244 0.622326 0.330000
0.736937 0.680563 0.330000
0.801223 0.729132 0.330000