# vtk DataFile Version 2.0
Mesh for Fierro
ASCII 
DATASET UNSTRUCTURED_GRID

POINTS 845 float
0.000000 0.000000 0.000000
0.376640 0.000000 0.000000
0.602594 0.000000 0.000000
0.717382 0.000000 0.000000
0.791952 0.000000 0.000000
0.840584 0.000000 0.000000
0.875674 0.000000 0.000000
0.904998 0.000000 0.000000
0.928529 0.000000 0.000000
0.948076 0.000000 0.000000
0.965918 0.000000 0.000000
0.982796 0.000000 0.000000
1.000000 0.000000 0.000000
0.000000 0.017204 0.000000
0.371549 0.022849 0.000000
0.594109 0.044362 0.000000
0.706618 0.073000 0.000000
0.777613 0.115882 0.000000
0.823256 0.157270 0.000000
0.858875 0.203758 0.000000
0.886335 0.251286 0.000000
0.910093 0.295958 0.000000
0.932826 0.330246 0.000000
0.954731 0.354812 0.000000
0.977152 0.371549 0.000000
1.000000 0.376640 0.000000
0.000000 0.034082 0.000000
0.354812 0.045269 0.000000
0.571451 0.084330 0.000000
0.682011 0.137902 0.000000
0.746489 0.211508 0.000000
0.790233 0.280832 0.000000
0.817534 0.356820 0.000000
0.839530 0.425023 0.000000
0.858334 0.487964 0.000000
0.884231 0.535486 0.000000
0.915670 0.571451 0.000000
0.955638 0.594109 0.000000
1.000000 0.602594 0.000000
0.000000 0.051924 0.000000
0.330246 0.067174 0.000000
0.535486 0.115769 0.000000
0.640301 0.187112 0.000000
0.695384 0.275226 0.000000
0.730756 0.358631 0.000000
0.744688 0.443875 0.000000
0.760678 0.517966 0.000000
0.776577 0.586275 0.000000
0.812888 0.640301 0.000000
0.862098 0.682011 0.000000
0.927000 0.706618 0.000000
1.000000 0.717382 0.000000
0.000000 0.071471 0.000000
0.295958 0.089907 0.000000
0.487964 0.141666 0.000000
0.586275 0.223423 0.000000
0.635783 0.319354 0.000000
0.657993 0.409681 0.000000
0.659464 0.495266 0.000000
0.669276 0.569422 0.000000
0.680646 0.635783 0.000000
0.724774 0.695384 0.000000
0.788492 0.746489 0.000000
0.884119 0.777613 0.000000
1.000000 0.791952 0.000000
0.000000 0.095002 0.000000
0.251286 0.113665 0.000000
0.425023 0.160470 0.000000
0.517966 0.239322 0.000000
0.569422 0.330724 0.000000
0.583245 0.418540 0.000000
0.579839 0.502682 0.000000
0.581460 0.583245 0.000000
0.590319 0.657993 0.000000
0.641369 0.730756 0.000000
0.719168 0.790233 0.000000
0.842730 0.823256 0.000000
1.000000 0.840584 0.000000
0.000000 0.124326 0.000000
0.203758 0.141125 0.000000
0.356820 0.182466 0.000000
0.443875 0.255312 0.000000
0.495266 0.340536 0.000000
0.502682 0.420161 0.000000
0.500000 0.500000 0.000000
0.497318 0.579839 0.000000
0.504734 0.659464 0.000000
0.556125 0.744688 0.000000
0.643180 0.817534 0.000000
0.796243 0.858875 0.000000
1.000000 0.875674 0.000000
0.000000 0.159416 0.000000
0.157270 0.176744 0.000000
0.280832 0.209767 0.000000
0.358631 0.269244 0.000000
0.409681 0.342007 0.000000
0.418540 0.416755 0.000000
0.420161 0.497318 0.000000
0.416755 0.581460 0.000000
0.430578 0.669276 0.000000
0.482034 0.760678 0.000000
0.574976 0.839530 0.000000
0.748714 0.886335 0.000000
1.000000 0.904999 0.000000
0.000000 0.208048 0.000000
0.115882 0.222387 0.000000
0.211508 0.253511 0.000000
0.275226 0.304616 0.000000
0.319354 0.364217 0.000000
0.330724 0.430578 0.000000
0.340536 0.504734 0.000000
0.342007 0.590319 0.000000
0.364217 0.680646 0.000000
0.413725 0.776577 0.000000
0.512036 0.858334 0.000000
0.704043 0.910093 0.000000
1.000000 0.928529 0.000000
0.000000 0.282618 0.000000
0.073000 0.293382 0.000000
0.137902 0.317989 0.000000
0.187112 0.359699 0.000000
0.223423 0.413725 0.000000
0.239322 0.482034 0.000000
0.255312 0.556125 0.000000
0.269244 0.641369 0.000000
0.304616 0.724774 0.000000
0.359699 0.812888 0.000000
0.464514 0.884231 0.000000
0.669755 0.932826 0.000000
1.000000 0.948076 0.000000
0.000000 0.397406 0.000000
0.044362 0.405891 0.000000
0.084330 0.428549 0.000000
0.115769 0.464514 0.000000
0.141666 0.512036 0.000000
0.160470 0.574976 0.000000
0.182466 0.643180 0.000000
0.209767 0.719168 0.000000
0.253511 0.788492 0.000000
0.317989 0.862098 0.000000
0.428549 0.915670 0.000000
0.645189 0.954731 0.000000
1.000000 0.965918 0.000000
0.000000 0.623361 0.000000
0.022849 0.628452 0.000000
0.045269 0.645189 0.000000
0.067174 0.669755 0.000000
0.089907 0.704043 0.000000
0.113665 0.748714 0.000000
0.141125 0.796243 0.000000
0.176744 0.842730 0.000000
0.222387 0.884119 0.000000
0.293382 0.927000 0.000000
0.405891 0.955638 0.000000
0.628452 0.977152 0.000000
1.000000 0.982796 0.000000
0.000000 1.000000 0.000000
0.017204 1.000000 0.000000
0.034082 1.000000 0.000000
0.051924 1.000000 0.000000
0.071471 1.000000 0.000000
0.095001 1.000000 0.000000
0.124326 1.000000 0.000000
0.159416 1.000000 0.000000
0.208048 1.000000 0.000000
0.282618 1.000000 0.000000
0.397406 1.000000 0.000000
0.623361 1.000000 0.000000
1.000000 1.000000 0.000000
0.000000 0.000000 0.082500
0.376640 0.000000 0.082500
0.602594 0.000000 0.082500
0.717382 0.000000 0.082500
0.791952 0.000000 0.082500
0.840584 0.000000 0.082500
0.875674 0.000000 0.082500
0.904998 0.000000 0.082500
0.928529 0.000000 0.082500
0.948076 0.000000 0.082500
0.965918 0.000000 0.082500
0.982796 0.000000 0.082500
1.000000 0.000000 0.082500
0.000000 0.017204 0.082500
0.371549 0.022849 0.082500
0.594109 0.044362 0.082500
0.706618 0.073000 0.082500
0.777613 0.115882 0.082500
0.823256 0.157270 0.082500
0.858875 0.203758 0.082500
0.886335 0.251286 0.082500
0.910093 0.295958 0.082500
0.932826 0.330246 0.082500
0.954731 0.354812 0.082500
0.977152 0.371549 0.082500
1.000000 0.376640 0.082500
0.000000 0.034082 0.082500
0.354812 0.045269 0.082500
0.571451 0.084330 0.082500
0.682011 0.137902 0.082500
0.746489 0.211508 0.082500
0.790233 0.280832 0.082500
0.817534 0.356820 0.082500
0.839530 0.425023 0.082500
0.858334 0.487964 0.082500
0.884231 0.535486 0.082500
0.915670 0.571451 0.082500
0.955638 0.594109 0.082500
1.000000 0.602594 0.082500
0.000000 0.051924 0.082500
0.330246 0.067174 0.082500
0.535486 0.115769 0.082500
0.640301 0.187112 0.082500
0.695384 0.275226 0.082500
0.730756 0.358631 0.082500
0.744688 0.443875 0.082500
0.760678 0.517966 0.082500
0.776577 0.586275 0.082500
0.812888 0.640301 0.082500
0.862098 0.682011 0.082500
0.927000 0.706618 0.082500
1.000000 0.717382 0.082500
0.000000 0.071471 0.082500
0.295958 0.089907 0.082500
0.487964 0.141666 0.082500
0.586275 0.223423 0.082500
0.635783 0.319354 0.082500
0.657993 0.409681 0.082500
0.659464 0.495266 0.082500
0.669276 0.569422 0.082500
0.680646 0.635783 0.082500
0.724774 0.695384 0.082500
0.788492 0.746489 0.082500
0.884119 0.777613 0.082500
1.000000 0.791952 0.082500
0.000000 0.095002 0.082500
0.251286 0.113665 0.082500
0.425023 0.160470 0.082500
0.517966 0.239322 0.082500
0.569422 0.330724 0.082500
0.583245 0.418540 0.082500
0.579839 0.502682 0.082500
0.581460 0.583245 0.082500
0.590319 0.657993 0.082500
0.641369 0.730756 0.082500
0.719168 0.790233 0.082500
0.842730 0.823256 0.082500
1.000000 0.840584 0.082500
0.000000 0.124326 0.082500
0.203758 0.141125 0.082500
0.356820 0.182466 0.082500
0.443875 0.255312 0.082500
0.495266 0.340536 0.082500
0.502682 0.420161 0.082500
0.500000 0.500000 0.082500
0.497318 0.579839 0.082500
0.504734 0.659464 0.082500
0.556125 0.744688 0.082500
0.643180 0.817534 0.082500
0.796243 0.858875 0.082500
1.000000 0.875674 0.082500
0.000000 0.159416 0.082500
0.157270 0.176744 0.082500
0.280832 0.209767 0.082500
0.358631 0.269244 0.082500
0.409681 0.342007 0.082500
0.418540 0.416755 0.082500
0.420161 0.497318 0.082500
0.416755 0.581460 0.082500
0.430578 0.669276 0.082500
0.482034 0.760678 0.082500
0.574976 0.839530 0.082500
0.748714 0.886335 0.082500
1.000000 0.904999 0.082500
0.000000 0.208048 0.082500
0.115882 0.222387 0.082500
0.211508 0.253511 0.082500
0.275226 0.304616 0.082500
0.319354 0.364217 0.082500
0.330724 0.430578 0.082500
0.340536 0.504734 0.082500
0.342007 0.590319 0.082500
0.364217 0.680646 0.082500
0.413725 0.776577 0.082500
0.512036 0.858334 0.082500
0.704043 0.910093 0.082500
1.000000 0.928529 0.082500
0.000000 0.282618 0.082500
0.073000 0.293382 0.082500
0.137902 0.317989 0.082500
0.187112 0.359699 0.082500
0.223423 0.413725 0.082500
0.239322 0.482034 0.082500
0.255312 0.556125 0.082500
0.269244 0.641369 0.082500
0.304616 0.724774 0.082500
0.359699 0.812888 0.082500
0.464514 0.884231 0.082500
0.669755 0.932826 0.082500
1.000000 0.948076 0.082500
0.000000 0.397406 0.082500
0.044362 0.405891 0.082500
0.084330 0.428549 0.082500
0.115769 0.464514 0.082500
0.141666 0.512036 0.082500
0.160470 0.574976 0.082500
0.182466 0.643180 0.082500
0.209767 0.719168 0.082500
0.253511 0.788492 0.082500
0.317989 0.862098 0.082500
0.428549 0.915670 0.082500
0.645189 0.954731 0.082500
1.000000 0.965918 0.082500
0.000000 0.623361 0.082500
0.022849 0.628452 0.082500
0.045269 0.645189 0.082500
0.067174 0.669755 0.082500
0.089907 0.704043 0.082500
0.113665 0.748714 0.082500
0.141125 0.796243 0.082500
0.176744 0.842730 0.082500
0.222387 0.884119 0.082500
0.293382 0.927000 0.082500
0.405891 0.955638 0.082500
0.628452 0.977152 0.082500
1.000000 0.982796 0.082500
0.000000 1.000000 0.082500
0.017204 1.000000 0.082500
0.034082 1.000000 0.082500
0.051924 1.000000 0.082500
0.071471 1.000000 0.082500
0.095001 1.000000 0.082500
0.124326 1.000000 0.082500
0.159416 1.000000 0.082500
0.208048 1.000000 0.082500
0.282618 1.000000 0.082500
0.397406 1.000000 0.082500
0.623361 1.000000 0.082500
1.000000 1.000000 0.082500
0.000000 0.000000 0.165000
0.376640 0.000000 0.165000
0.602594 0.000000 0.165000
0.717382 0.000000 0.165000
0.791952 0.000000 0.165000
0.840584 0.000000 0.165000
0.875674 0.000000 0.165000
0.904998 0.000000 0.165000
0.928529 0.000000 0.165000
0.948076 0.000000 0.165000
0.965918 0.000000 0.165000
0.982796 0.000000 0.165000
1.000000 0.000000 0.165000
0.000000 0.017204 0.165000
0.371549 0.022849 0.165000
0.594109 0.044362 0.165000
0.706618 0.073000 0.165000
0.777613 0.115882 0.165000
0.823256 0.157270 0.165000
0.858875 0.203758 0.165000
0.886335 0.251286 0.165000
0.910093 0.295958 0.165000
0.932826 0.330246 0.165000
0.954731 0.354812 0.165000
0.977152 0.371549 0.165000
1.000000 0.376640 0.165000
0.000000 0.034082 0.165000
0.354812 0.045269 0.165000
[...]
POINT_DATA 845 
VECTORS pos float 
0.000000 0.000000 0.000000
0.376640 0.000000 0.000000
0.602594 0.000000 0.000000
0.717382 0.000000 0.000000
0.791952 0.000000 0.000000
0.840584 0.000000 0.000000
0.875674 0.000000 0.000000
0.904998 0.000000 0.000000
0.928529 0.000000 0.000000
0.948076 0.000000 0.000000
0.965918 0.000000 0.000000
0.982796 0.000000 0.000000
1.000000 0.000000 0.000000
0.000000 0.017204 0.000000
0.371549 0.022849 0.000000
0.594109 0.044362 0.000000
0.706618 0.073000 0.000000
0.777613 0.115882 0.000000
0.823256 0.157270 0.000000
0.858875 0.203758 0.000000
0.886335 0.251286 0.000000
0.910093 0.295958 0.000000
0.932826 0.330246 0.000000
0.954731 0.354812 0.000000
0.977152 0.371549 0.000000
1.000000 0.376640 0.000000
0.000000 0.034082 0.000000
0.354812 0.045269 0.000000
0.571451 0.084330 0.000000
0.682011 0.137902 0.000000
0.746489 0.211508 0.000000
0.790233 0.280832 0.000000
0.817534 0.356820 0.000000
0.839530 0.425023 0.000000
0.858334 0.487964 0.000000
0.884231 0.535486 0.000000
0.915670 0.571451 0.000000
0.955638 0.594109 0.000000
1.000000 0.602594 0.000000
0.000000 0.051924 0.000000
0.330246 0.067174 0.000000
0.535486 0.115769 0.000000
0.640301 0.187112 0.000000
0.695384 0.275226 0.000000
0.730756 0.358631 0.000000
0.744688 0.443875 0.000000
0.760678 0.517966 0.000000
0.776577 0.586275 0.000000
0.812888 0.640301 0.000000
0.862098 0.682011 0.000000
0.927000 0.706618 0.000000
1.000000 0.717382 0.000000
0.000000 0.071471 0.000000
0.295958 0.089907 0.000000
0.487964 0.141666 0.000000
0.586275 0.223423 0.000000
0.635783 0.319354 0.000000
0.657993 0.409681 0.000000
0.659464 0.495266 0.000000
0.669276 0.569422 0.000000
0.680646 0.635783 0.000000
0.724774 0.695384 0.000000
0.788492 0.746489 0.000000
0.884119 0.777613 0.000000
1.000000 0.791952 0.000000
0.000000 0.095002 0.000000
0.251286 0.113665 0.000000
0.425023 0.160470 0.000000
0.517966 0.239322 0.000000
0.569422 0.330724 0.000000
0.583245 0.418540 0.000000
0.579839 0.502682 0.000000
0.581460 0.583245 0.000000
0.590319 0.657993 0.000000
0.641369 0.730756 0.000000
0.719168 0.790233 0.000000
0.842730 0.823256 0.000000
1.000000 0.840584 0.000000
0.000000 0.124326 0.000000
0.203758 0.141125 0.000000
0.356820 0.182466 0.000000
0.443875 0.255312 0.000000
0.495266 0.340536 0.000000
0.502682 0.420161 0.000000
0.500000 0.500000 0.000000
0.497318 0.579839 0.000000
0.504734 0.659464 0.000000
0.556125 0.744688 0.000000
0.643180 0.817534 0.000000
0.796243 0.858875 0.000000
1.000000 0.875674 0.000000
0.000000 0.159416 0.000000
0.157270 0.176744 0.000000
0.280832 0.209767 0.000000
0.358631 0.269244 0.000000
0.409681 0.342007 0.000000
0.418540 0.416755 0.000000
0.420161 0.497318 0.000000
0.416755 0.581460 0.000000
0.430578 0.669276 0.000000
0.482034 0.760678 0.000000
0.574976 0.839530 0.000000
0.748714 0.886335 0.000000
1.000000 0.904999 0.000000
0.000000 0.208048 0.000000
0.115882 0.222387 0.000000
0.211508 0.253511 0.000000
0.275226 0.304616 0.000000
0.319354 0.364217 0.000000
0.330724 0.430578 0.000000
0.340536 0.504734 0.000000
0.342007 0.590319 0.000000
0.364217 0.680646 0.000000
0.413725 0.776577 0.000000
0.512036 0.858334 0.000000
0.704043 0.910093 0.000000
1.000000 0.928529 0.000000
0.000000 0.282618 0.000000
0.073000 0.293382 0.000000
0.137902 0.317989 0.000000
0.187112 0.359699 0.000000
0.223423 0.413725 0.000000
0.239322 0.482034 0.000000
0.255312 0.556125 0.000000
0.269244 0.641369 0.000000
0.304616 0.724774 0.000000
0.359699 0.812888 0.000000
0.464514 0.884231 0.000000
0.669755 0.932826 0.000000
1.000000 0.948076 0.000000
0.000000 0.397406 0.000000
0.044362 0.405891 0.000000
0.084330 0.428549 0.000000
0.115769 0.464514 0.000000
0.141666 0.512036 0.000000
0.160470 0.574976 0.000000
0.182466 0.643180 0.000000
0.209767 0.719168 0.000000
0.253511 0.788492 0.000000
0.317989 0.862098 0.000000
0.428549 0.915670 0.000000
0.645189 0.954731 0.000000
1.000000 0.965918 0.000000
0.000000 0.623361 0.000000
0.022849 0.628452 0.000000
0.045269 0.645189 0.000000
0.067174 0.669755 0.000000
0.089907 0.704043 0.000000
0.113665 0.748714 0.000000
0.141125 0.796243 0.000000
0.176744 0.842730 0.000000
0.222387 0.884119 0.000000
0.293382 0.927000 0.000000
0.405891 0.955638 0.000000
0.628452 0.977152 0.000000
1.000000 0.982796 0.000000
0.000000 1.000000 0.000000
0.017204 1.000000 0.000000
0.034082 1.000000 0.000000
0.051924 1.000000 0.000000
0.071471 1.000000 0.000000
0.095001 1.000000 0.000000
0.124326 1.000000 0.000000
0.159416 1.000000 0.000000
0.208048 1.000000 0.000000
0.282618 1.000000 0.000000
0.397406 1.000000 0.000000
0.623361 1.000000 0.000000
1.000000 1.000000 0.000000
0.000000 0.000000 0.082500
0.376640 0.000000 0.082500
0.602594 0.000000 0.082500
0.717382 0.000000 0.082500
0.791952 0.000000 0.082500
0.840584 0.000000 0.082500
0.875674 0.000000 0.082500
0.904998 0.000000 0.082500
0.928529 0.000000 0.082500
0.948076 0.000000 0.082500
0.965918 0.000000 0.082500
0.982796 0.000000 0.082500
1.000000 0.000000 0.082500
0.000000 0.017204 0.082500
0.371549 0.022849 0.082500
0.594109 0.044362 0.082500
0.706618 0.073000 0.082500
0.777613 0.115882 0.082500
0.823256 0.157270 0.082500
0.858875 0.203758 0.082500
0.886335 0.251286 0.082500
0.910093 0.295958 0.082500
0.932826 0.330246 0.082500
0.954731 0.354812 0.082500
0.977152 0.371549 0.082500
1.000000 0.376640 0.082500
0.000000 0.034082 0.082500
0.354812 0.045269 0.082500
0.571451 0.084330 0.082500
0.682011 0.137902 0.082500
0.746489 0.211508 0.082500
0.790233 0.280832 0.082500
0.817534 0.356820 0.082500
0.839530 0.425023 0.082500
0.858334 0.487964 0.082500
0.884231 0.535486 0.082500
0.915670 0.571451 0.082500
0.955638 0.594109 0.082500
1.000000 0.602594 0.082500
0.000000 0.051924 0.082500
0.330246 0.067174 0.082500
0.535486 0.115769 0.082500
0.640301 0.187112 0.082500
0.695384 0.275226 0.082500
0.730756 0.358631 0.082500
0.744688 0.443875 0.082500
0.760678 0.517966 0.082500
0.776577 0.586275 0.082500
0.812888 0.640301 0.082500
0.862098 0.682011 0.082500
0.927000 0.706618 0.082500
1.000000 0.717382 0.082500
0.000000 0.071471 0.082500
0.295958 0.089907 0.082500
0.487964 0.141666 0.082500
0.586275 0.223423 0.082500
0.635783 0.319354 0.082500
0.657993 0.409681 0.082500
0.659464 0.495266 0.082500
0.669276 0.569422 0.082500
0.680646 0.635783 0.082500
0.724774 0.695384 0.082500
0.788492 0.746489 0.082500
0.884119 0.777613 0.082500
1.000000 0.791952 0.082500
0.000000 0.095002 0.082500
0.251286 0.113665 0.082500
0.425023 0.160470 0.082500
0.517966 0.239322 0.082500
0.569422 0.330724 0.082500
0.583245 0.418540 0.082500
0.579839 0.502682 0.082500
0.581460 0.583245 0.082500
0.590319 0.657993 0.082500
0.641369 0.730756 0.082500
0.719168 0.790233 0.082500
0.842730 0.823256 0.082500
1.000000 0.840584 0.082500
0.000000 0.124326 0.082500
0.203758 0.141125 0.082500
0.356820 0.182466 0.082500
0.443875 0.255312 0.082500
0.495266 0.340536 0.082500
0.502682 0.420161 0.082500
0.500000 0.500000 0.082500
0.497318 0.579839 0.082500
0.504734 0.659464 0.082500
0.556125 0.744688 0.082500
0.643180 0.817534 0.082500
0.796243 0.858875 0.082500
1.000000 0.875674 0.082500
0.000000 0.159416 0.082500
0.157270 0.176744 0.082500
0.280832 0.209767 0.082500
0.358631 0.269244 0.082500
0.409681 0.342007 0.082500
0.418540 0.416755 0.082500
0.420161 0.497318 0.082500
0.416755 0.581460 0.082500
0.430578 0.669276 0.082500
0.482034 0.760678 0.082500
0.574976 0.839530 0.082500
0.748714 0.886335 0.082500
1.000000 0.904999 0.082500
0.000000 0.208048 0.082500
0.115882 0.222387 0.082500
0.211508 0.253511 0.082500
0.275226 0.304616 0.082500
0.319354 0.364217 0.082500
0.330724 0.430578 0.082500
0.340536 0.504734 0.082500
0.342007 0.590319 0.082500
0.364217 0.680646 0.082500
0.413725 0.776577 0.082500
0.512036 0.858334 0.082500
0.704043 0.910093 0.082500
1.000000 0.928529 0.082500
0.000000 0.282618 0.082500
0.073000 0.293382 0.082500
0.137902 0.317989 0.082500
0.187112 0.359699 0.082500
0.223423 0.413725 0.082500
0.239322 0.482034 0.082500
0.255312 0.556125 0.082500
0.269244 0.641369 0.082500
0.304616 0.724774 0.082500
0.359699 0.812888 0.082500
0.464514 0.884231 0.082500
0.669755 0.932826 0.082500
1.000000 0.948076 0.082500
0.000000 0.397406 0.082500
0.044362 0.405891 0.082500
0.084330 0.428549 0.082500
0.115769 0.464514 0.082500
0.141666 0.512036 0.082500
0.160470 0.574976 0.082500
0.182466 0.643180 0.082500
0.209767 0.719168 0.082500
0.253511 0.788492 0.082500
0.317989 0.862098 0.082500
0.428549 0.915670 0.082500
0.645189 0.954731 0.082500
1.000000 0.965918 0.082500
0.000000 0.623361 0.082500
0.022849 0.628452 0.082500
0.045269 0.645189 0.082500
0.067174 0.669755 0.082500
0.089907 0.704043 0.082500
0.113665 0.748714 0.082500
0.141125 0.796243 0.082500
0.176744 0.842730 0.082500
0.222387 0.884119 0.082500
0.293382 0.927000 0.082500
0.405891 0.955638 0.082500
0.628452 0.977152 0.082500
1.000000 0.982796 0.082500
0.000000 1.000000 0.082500
0.017204 1.000000 0.082500
0.034082 1.000000 0.082500
0.051924 1.000000 0.082500
0.071471 1.000000 0.082500
0.095001 1.000000 0.082500
0.124326 1.000000 0.082500
0.159416 1.000000 0.082500
0.208048 1.000000 0.082500
0.282618 1.000000 0.082500
0.397406 1.000000 0.082500
0.623361 1.000000 0.082500
1.000000 1.000000 0.082500
0.000000 0.000000 0.165000
0.376640 0.000000 0.165000
0.602594 0.000000 0.165000
0.717382 0.000000 0.165000
0.791952 0.000000 0.165000
0.840584 0.000000 0.165000
0.875674 0.000000 0.165000
0.904998 0.000000 0.165000
0.928529 0.000000 0.165000
0.948076 0.000000 0.165000
0.965918 0.000000 0.165000
0.982796 0.000000 0.165000
1.000000 0.000000 0.165000
0.000000 0.017204 0.165000
0.371549 0.022849 0.165000
0.594109 0.044362 0.165000
0.706618 0.073000 0.165000
0.777613 0.115882 0.165000
0.823256 0.157270 0.165000
0.858875 0.203758 0.165000
0.886335 0.251286 0.165000
0.910093 0.295958 0.165000
0.932826 0.330246 0.165000
0.954731 0.354812 0.165000
0.977152 0.371549 0.165000
1.000000 0.376640 0.165000
0.000000 0.034082 0.165000
0.354812 0.045269 0.165000
0.571451 0.084330 0.165000
0.682011 0.137902 0.165000
0.746489 0.211508 0.165000
0.790233 0.280832 0.165000
0.817534 0.356820 0.165000
0.839530 0.425023 0.165000
0.858334 0.487964 0.165000
0.884231 0.535486 0.165000
0.915670 0.571451 0.165000
0.955638 0.594109 0.165000
1.000000 0.602594 0.165000
0.000000 0.051924 0.165000
0.330246 0.067174 0.165000
0.535486 0.115769 0.165000
0.640301 0.187112 0.165000
0.695384 0.275226 0.165000
0.730756 0.358631 0.165000
0.744688 0.443875 0.165000
0.760678 0.517966 0.165000
0.776577 0.586275 0.165000
0.812888 0.640301 0.165000
0.862098 0.682011 0.165000
0.927000 0.706618 0.165000
1.000000 0.717382 0.165000
0.000000 0.071471 0.165000
0.295958 0.089907 0.165000
0.487964 0.141666 0.165000
0.586275 0.223423 0.165000
0.635783 0.319354 0.165000
0.657993 0.409681 0.165000
0.659464 0.495266 0.165000
0.669276 0.569422 0.165000
0.680646 0.635783 0.165000
0.724774 0.695384 0.165000
0.788492 0.746489 0.165000
0.884119 0.777613 0.165000
1.000000 0.791952 0.165000
0.000000 0.095002 0.165000
0.251286 0.113665 0.165000
0.425023 0.160470 0.165000
0.517966 0.239322 0.165000
0.569422 0.330724 0.165000
0.583245 0.418540 0.165000
0.579839 0.502682 0.165000
0.581460 0.583245 0.165000
0.590319 0.657993 0.165000
0.641369 0.730756 0.165000
0.719168 0.790233 0.165000
0.842730 0.823256 0.165000
1.000000 0.840584 0.165000
0.000000 0.124326 0.165000
0.203758 0.141125 0.165000
0.356820 0.182466 0.165000
0.443875 0.255312 0.165000
0.495266 0.340536 0.165000
0.502682 0.420161 0.165000
0.500000 0.500000 0.165000
0.497318 0.579839 0.165000
0.504734 0.659464 0.165000
0.556125 0.744688 0.165000
0.643180 0.817534 0.165000
0.796243 0.858875 0.165000
1.000000 0.875674 0.165000
0.000000 0.159416 0.165000
0.157270 0.176744 0.165000
0.280832 0.209767 0.165000
0.358631 0.269244 0.165000
0.409681 0.342007 0.165000
0.418540 0.416755 0.165000
0.420161 0.497318 0.165000
0.416755 0.581460 0.165000
0.430578 0.669276 0.165000
0.482034 0.760678 0.165000
0.574976 0.839530 0.165000
0.748714 0.886335 0.165000
1.000000 0.904999 0.165000
0.000000 0.208048 0.165000
0.115882 0.222387 0.165000
0.211508 0.253511 0.165000
0.275226 0.304616 0.165000
0.319354 0.364217 0.165000
0.330724 0.430578 0.165000
0.340536 0.504734 0.165000
0.342007 0.590319 0.165000
0.364217 0.680646 0.165000
0.413725 0.776577 0.165000
0.512036 0.858334 0.165000
0.704043 0.910093 0.165000
1.000000 0.928529 0.165000
0.000000 0.282618 0.165000
0.073000 0.293382 0.165000
0.137902 0.317989 0.165000
0.187112 0.359699 0.165000
0.223423 0.413725 0.165000
0.239322 0.482034 0.165000
0.255312 0.556125 0.165000
0.269244 0.641369 0.165000
0.304616 0.724774 0.165000
0.359699 0.812888 0.165000
0.464514 0.884231 0.165000
0.669755 0.932826 0.165000
1.000000 0.948076 0.165000
0.000000 0.397406 0.165000
0.044362 0.405891 0.165000
0.084330 0.428549 0.165000
0.115769 0.464514 0.165000
0.141666 0.512036 0.165000
0.160470 0.574976 0.165000
0.182466 0.643180 0.165000
0.209767 0.719168 0.165000
0.253511 0.788492 0.165000
0.317989 0.862098 0.165000
0.428549 0.915670 0.165000
0.645189 0.954731 0.165000
1.000000 0.965918 0.165000
0.000000 0.623361 0.165000
0.022849 0.628452 0.165000
0.045269 0.645189 0.165000
0.067174 0.669755 0.165000
0.089907 0.704043 0.165000
0.113665 0.748714 0.165000
0.141125 0.796243 0.165000
0.176744 0.842730 0.165000
0.222387 0.884119 0.165000
0.293382 0.927000 0.165000
0.405891 0.955638 0.165000
0.628452 0.977152 0.165000
1.000000 0.982796 0.165000
0.000000 1.000000 0.165000
0.017204 1.000000 0.165000
0.034082 1.000000 0.165000
0.051924 1.000000 0.165000
0.071471 1.000000 0.165000
0.095001 1.000000 0.165000
0.124326 1.000000 0.165000
0.159416 1.000000 0.165000
0.208048 1.000000 0.165000
0.282618 1.000000 0.165000
0.397406 1.000000 0.165000
0.623361 1.000000 0.165000
1.000000 1.000000 0.165000
0.000000 0.000000 0.247500
0.376640 0.000000 0.247500
0.602594 0.000000 0.247500
0.717382 0.000000 0.247500
0.791952 0.000000 0.247500
0.840584 0.000000 0.247500
0.875674 0.000000 0.247500
0.904998 0.000000 0.247500
0.928529 0.000000 0.247500
0.948076 0.000000 0.247500
0.965918 0.000000 0.247500
0.982796 0.000000 0.247500
1.000000 0.000000 0.247500
0.000000 0.017204 0.247500
0.371549 0.022849 0.247500
0.594109 0.044362 0.247500
0.706618 0.073000 0.247500
0.777613 0.115882 0.247500
0.823256 0.157270 0.247500
0.858875 0.203758 0.247500
0.886335 0.251286 0.247500
0.910093 0.295958 0.247500
0.932826 0.330246 0.247500
0.954731 0.354812 0.247500
0.977152 0.371549 0.247500
1.000000 0.376640 0.247500
0.000000 0.034082 0.247500
0.354812 0.045269 0.247500
0.571451 0.084330 0.247500
0.682011 0.137902 0.247500
0.746489 0.211508 0.247500
0.790233 0.280832 0.247500
0.817534 0.356820 0.247500
0.839530 0.425023 0.247500
0.858334 0.487964 0.247500
0.884231 0.535486 0.247500
0.915670 0.571451 0.247500
0.955638 0.594109 0.247500
1.000000 0.602594 0.247500
0.000000 0.051924 0.247500
0.330246 0.067174 0.247500
0.535486 0.115769 0.247500
0.640301 0.187112 0.247500
0.695384 0.275226 0.247500
0.730756 0.358631 0.247500
0.744688 0.443875 0.247500
0.760678 0.517966 0.247500
0.776577 0.586275 0.247500
0.812888 0.640301 0.247500
0.862098 0.682011 0.247500
0.927000 0.706618 0.247500
1.000000 0.717382 0.247500
0.000000 0.071471 0.247500
0.295958 0.089907 0.247500
0.487964 0.141666 0.247500
0.586275 0.223423 0.247500
0.635783 0.319354 0.247500
0.657993 0.409681 0.247500
0.659464 0.495266 0.247500
0.669276 0.569422 0.247500
0.680646 0.635783 0.247500
0.724774 0.695384 0.247500
0.788492 0.746489 0.247500
0.884119 0.777613 0.247500
1.000000 0.791952 0.247500
0.000000 0.095002 0.247500
0.251286 0.113665 0.247500
0.425023 0.160470 0.247500
0.517966 0.239322 0.247500
0.569422 0.330724 0.247500
0.583245 0.418540 0.247500
0.579839 0.502682 0.247500
0.581460 0.583245 0.247500
0.590319 0.657993 0.247500
0.641369 0.730756 0.247500
0.719168 0.790233 0.247500
0.842730 0.823256 0.247500
1.000000 0.840584 0.247500
0.000000 0.124326 0.247500
0.203758 0.141125 0.247500
0.356820 0.182466 0.247500
0.443875 0.255312 0.247500
0.495266 0.340536 0.247500
0.502682 0.420161 0.247500
0.500000 0.500000 0.247500
0.497318 0.579839 0.247500
0.504734 0.659464 0.247500
0.556125 0.744688 0.247500
0.643180 0.817534 0.247500
0.796243 0.858875 0.247500
1.000000 0.875674 0.247500
0.000000 0.159416 0.247500
0.157270 0.176744 0.247500
0.280832 0.209767 0.247500
0.358631 0.269244 0.247500
0.409681 0.342007 0.247500
0.418540 0.416755 0.247500
0.420161 0.497318 0.247500
0.416755 0.581460 0.247500
0.430578 0.669276 0.247500
0.482034 0.760678 0.247500
0.574976 0.839530 0.247500
0.748714 0.886335 0.247500
1.000000 0.904999 0.247500
0.000000 0.208048 0.247500
0.115882 0.222387 0.247500
0.211508 0.253511 0.247500
0.275226 0.304616 0.247500
0.319354 0.364217 0.247500
0.330724 0.430578 0.247500
0.340536 0.504734 0.247500
0.342007 0.590319 0.247500
0.364217 0.680646 0.247500
0.413725 0.776577 0.247500
0.512036 0.858334 0.247500
0.704043 0.910093 0.247500
1.000000 0.928529 0.247500
0.000000 0.282618 0.247500
0.073000 0.293382 0.247500
0.137902 0.317989 0.247500
0.187112 0.359699 0.247500
0.223423 0.413725 0.247500
0.239322 0.482034 0.247500
0.255312 0.556125 0.247500
0.269244 0.641369 0.247500
0.304616 0.724774 0.247500
0.359699 0.812888 0.247500
0.464514 0.884231 0.247500
0.669755 0.932826 0.247500
1.000000 0.948076 0.247500
0.000000 0.397406 0.247500
0.044362 0.405891 0.247500
0.084330 0.428549 0.247500
0.115769 0.464514 0.247500
0.141666 0.512036 0.247500
0.160470 0.574976 0.247500
0.182466 0.643180 0.247500
0.209767 0.719168 0.247500
0.253511 0.788492 0.247500
0.317989 0.862098 0.247500
0.428549 0.915670 0.247500
0.645189 0.954731 0.247500
1.000000 0.965918 0.247500
0.000000 0.623361 0.247500
0.022849 0.628452 0.247500
0.045269 0.645189 0.247500
0.067174 0.669755 0.247500
0.089907 0.704043 0.247500
0.113665 0.748714 0.247500
0.141125 0.796243 0.247500
0.176744 0.842730 0.247500
0.222387 0.884119 0.247500
0.293382 0.927000 0.247500
0.405891 0.955638 0.247500
0.628452 0.977152 0.247500
1.000000 0.982796 0.247500
0.000000 1.000000 0.247500
0.017204 1.000000 0.247500
0.034082 1.000000 0.247500
0.051924 1.000000 0.247500
0.071471 1.000000 0.247500
0.095001 1.000000 0.247500
0.124326 1.000000 0.247500
0.159416 1.000000 0.247500
0.208048 1.000000 0.247500
0.282618 1.000000 0.247500
0.397406 1.000000 0.247500
0.623361 1.000000 0.247500
1.000000 1.000000 0.247500
0.000000 0.000000 0.330000
0.376640 0.000000 0.330000
0.602594 0.000000 0.330000
0.717382 0.000000 0.330000
0.791952 0.000000 0.330000
0.840584 0.000000 0.330000
0.875674 0.000000 0.330000
0.904998 0.000000 0.330000
0.928529 0.000000 0.330000
0.948076 0.000000 0.330000
0.965918 0.000000 0.330000
0.982796 0.000000 0.330000
1.000000 0.000000 0.330000
0.000000 0.017204 0.330000
0.371549 0.022849 0.330000
0.594109 0.044362 0.330000
0.706618 0.073000 0.330000
0.777613 0.115882 0.330000
0.823256 0.157270 0.330000
0.858875 0.203758 0.330000
0.886335 0.251286 0.330000
0.910093 0.295958 0.330000
0.932826 0.330246 0.330000
0.954731 0.354812 0.330000
0.977152 0.371549 0.330000
1.000000 0.376640 0.330000
0.000000 0.034082 0.330000
0.354812 0.045269 0.330000
0.571451 0.084330 0.330000
0.682011 0.137902 0.330000
0.746489 0.211508 0.330000
0.790233 0.280832 0.330000
0.817534 0.356820 0.330000
0.839530 0.425023 0.330000
0.858334 0.487964 0.330000
0.884231 0.535486 0.330000
0.915670 0.571451 0.330000
0.955638 0.594109 0.330000
1.000000 0.602594 0.330000
0.000000 0.051924 0.330000
0.330246 0.067174 0.330000
0.535486 0.115769 0.330000
0.640301 0.187112 0.330000
0.695384 0.275226 0.330000
0.730756 0.358631 0.330000
0.744688 0.443875 0.330000
0.760678 0.517966 0.330000
0.776577 0.586275 0.330000
0.812888 0.640301 0.330000
0.862098 0.682011 0.330000
0.927000 0.706618 0.330000
1.000000 0.717382 0.330000
0.000000 0.071471 0.330000
0.295958 0.089907 0.330000
0.487964 0.141666 0.330000
0.586275 0.223423 0.330000
0.635783 0.319354 0.330000
0.657993 0.409681 0.330000
0.659464 0.495266 0.330000
0.669276 0.569422 0.330000
0.680646 0.635783 0.330000
0.724774 0.695384 0.330000
0.788492 0.746489 0.330000