# vtk DataFile Version 2.0
Mesh for Fierro
ASCII 
DATASET UNSTRUCTURED_GRID

POINTS 845 float
0.000000 0.000000 0.000000
0.484664 0.000000 0.000000
0.723645 0.000000 0.000000
0.802787 0.000000 0.000000
0.858456 0.000000 0.000000
0.893020 0.000000 0.000000
0.919744 0.000000 0.000000
0.938710 0.000000 0.000000
0.952219 0.000000 0.000000
0.963853 0.000000 0.000000
0.974726 0.000000 0.000000
0.987011 0.000000 0.000000
1.000000 0.000000 0.000000
0.000000 0.012989 0.000000
0.480333 0.019870 0.000000
0.708482 0.056678 0.000000
0.788950 0.096142 0.000000
0.840532 0.161205 0.000000
0.871221 0.220296 0.000000
0.893047 0.282508 0.000000
0.911306 0.344268 0.000000
0.926875 0.398814 0.000000
0.943654 0.437538 0.000000
0.961043 0.464273 0.000000
0.980130 0.480333 0.000000
1.000000 0.484664 0.000000
0.000000 0.025274 0.000000
0.464273 0.038957 0.000000
0.681000 0.103832 0.000000
0.766654 0.176590 0.000000
0.802347 0.284601 0.000000
0.828578 0.369101 0.000000
0.838781 0.457214 0.000000
0.843958 0.529535 0.000000
0.848408 0.592158 0.000000
0.866847 0.641133 0.000000
0.896168 0.681000 0.000000
0.943323 0.708482 0.000000
1.000000 0.723645 0.000000
0.000000 0.036147 0.000000
0.437538 0.056346 0.000000
0.641133 0.133153 0.000000
0.724087 0.227015 0.000000
0.742796 0.343728 0.000000
0.759092 0.437089 0.000000
0.747761 0.526542 0.000000
0.742547 0.601527 0.000000
0.742160 0.669569 0.000000
0.772985 0.724087 0.000000
0.823410 0.766654 0.000000
0.903858 0.788950 0.000000
1.000000 0.802787 0.000000
0.000000 0.047781 0.000000
0.398814 0.073125 0.000000
0.592158 0.151592 0.000000
0.669569 0.257840 0.000000
0.680393 0.373483 0.000000
0.679364 0.470175 0.000000
0.650751 0.551286 0.000000
0.638024 0.620650 0.000000
0.626517 0.680393 0.000000
0.656272 0.742796 0.000000
0.715399 0.802347 0.000000
0.838795 0.840532 0.000000
1.000000 0.858456 0.000000
0.000000 0.061291 0.000000
0.344268 0.088694 0.000000
0.529535 0.156042 0.000000
0.601527 0.257453 0.000000
0.620650 0.361976 0.000000
0.607184 0.453767 0.000000
0.573365 0.531481 0.000000
0.546233 0.607184 0.000000
0.529825 0.679364 0.000000
0.562911 0.759092 0.000000
0.630899 0.828578 0.000000
0.779705 0.871221 0.000000
1.000000 0.893020 0.000000
0.000000 0.080256 0.000000
0.282508 0.106953 0.000000
0.457214 0.161219 0.000000
0.526542 0.252239 0.000000
0.551286 0.349249 0.000000
0.531481 0.426635 0.000000
0.500000 0.500000 0.000000
0.468519 0.573365 0.000000
0.448714 0.650751 0.000000
0.473458 0.747761 0.000000
0.542786 0.838781 0.000000
0.717493 0.893047 0.000000
1.000000 0.919745 0.000000
0.000000 0.106980 0.000000
0.220296 0.128779 0.000000
0.369101 0.171422 0.000000
0.437089 0.240908 0.000000
0.470175 0.320636 0.000000
0.453767 0.392816 0.000000
0.426635 0.468519 0.000000
0.392816 0.546233 0.000000
0.379350 0.638024 0.000000
0.398473 0.742547 0.000000
0.470464 0.843958 0.000000
0.655733 0.911306 0.000000
1.000000 0.938710 0.000000
0.000000 0.141544 0.000000
0.161205 0.159468 0.000000
0.284601 0.197653 0.000000
0.343728 0.257204 0.000000
0.373483 0.319606 0.000000
0.361976 0.379350 0.000000
0.349249 0.448714 0.000000
0.320636 0.529825 0.000000
0.319606 0.626517 0.000000
0.330431 0.742160 0.000000
0.407842 0.848408 0.000000
0.601187 0.926875 0.000000
1.000000 0.952219 0.000000
0.000000 0.197213 0.000000
0.096142 0.211050 0.000000
0.176590 0.233346 0.000000
0.227015 0.275913 0.000000
0.257840 0.330431 0.000000
0.257453 0.398473 0.000000
0.252239 0.473458 0.000000
0.240908 0.562911 0.000000
0.257204 0.656272 0.000000
0.275913 0.772985 0.000000
0.358867 0.866847 0.000000
0.562463 0.943654 0.000000
1.000000 0.963853 0.000000
0.000000 0.276355 0.000000
0.056678 0.291518 0.000000
0.103831 0.319000 0.000000
0.133153 0.358867 0.000000
0.151592 0.407842 0.000000
0.156042 0.470464 0.000000
0.161219 0.542786 0.000000
0.171422 0.630899 0.000000
0.197653 0.715399 0.000000
0.233346 0.823410 0.000000
0.319000 0.896169 0.000000
0.535728 0.961043 0.000000
1.000000 0.974726 0.000000
0.000000 0.515336 0.000000
0.019870 0.519668 0.000000
0.038957 0.535728 0.000000
0.056346 0.562463 0.000000
0.073125 0.601187 0.000000
0.088694 0.655733 0.000000
0.106953 0.717493 0.000000
0.128779 0.779705 0.000000
0.159468 0.838795 0.000000
0.211050 0.903858 0.000000
0.291518 0.943323 0.000000
0.519668 0.980130 0.000000
1.000000 0.987011 0.000000
0.000000 1.000000 0.000000
0.012989 1.000000 0.000000
0.025274 1.000000 0.000000
0.036147 1.000000 0.000000
0.047781 1.000000 0.000000
0.061290 1.000000 0.000000
0.080255 1.000000 0.000000
0.106980 1.000000 0.000000
0.141544 1.000000 0.000000
0.197213 1.000000 0.000000
0.276355 1.000000 0.000000
0.515336 1.000000 0.000000
1.000000 1.000000 0.000000
0.000000 0.000000 0.082500
0.484664 0.000000 0.082500
0.723645 0.000000 0.082500
0.802787 0.000000 0.082500
0.858456 0.000000 0.082500
0.893020 0.000000 0.082500
0.919744 0.000000 0.082500
0.938710 0.000000 0.082500
0.952219 0.000000 0.082500
0.963853 0.000000 0.082500
0.974726 0.000000 0.082500
0.987011 0.000000 0.082500
1.000000 0.000000 0.082500
0.000000 0.012989 0.082500
0.480333 0.019870 0.082500
0.708482 0.056678 0.082500
0.788950 0.096142 0.082500
0.840532 0.161205 0.082500
0.871221 0.220296 0.082500
0.893047 0.282508 0.082500
0.911306 0.344268 0.082500
0.926875 0.398814 0.082500
0.943654 0.437538 0.082500
0.961043 0.464273 0.082500
0.980130 0.480333 0.082500
1.000000 0.484664 0.082500
0.000000 0.025274 0.082500
0.464273 0.038957 0.082500
0.681000 0.103832 0.082500
0.766654 0.176590 0.082500
0.802347 0.284601 0.082500
0.828578 0.369101 0.082500
0.838781 0.457214 0.082500
0.843958 0.529535 0.082500
0.848408 0.592158 0.082500
0.866847 0.641133 0.082500
0.896168 0.681000 0.082500
0.943323 0.708482 0.082500
1.000000 0.723645 0.082500
0.000000 0.036147 0.082500
0.437538 0.056346 0.082500
0.641133 0.133153 0.082500
0.724087 0.227015 0.082500
0.742796 0.343728 0.082500
0.759092 0.437089 0.082500
0.747761 0.526542 0.082500
0.742547 0.601527 0.082500
0.742160 0.669569 0.082500
0.772985 0.724087 0.082500
0.823410 0.766654 0.082500
0.903858 0.788950 0.082500
1.000000 0.802787 0.082500
0.000000 0.047781 0.082500
0.398814 0.073125 0.082500
0.592158 0.151592 0.082500
0.669569 0.257840 0.082500
0.680393 0.373483 0.082500
0.679364 0.470175 0.082500
0.650751 0.551286 0.082500
0.638024 0.620650 0.082500
0.626517 0.680393 0.082500
0.656272 0.742796 0.082500
0.715399 0.802347 0.082500
0.838795 0.840532 0.082500
1.000000 0.858456 0.082500
0.000000 0.061291 0.082500
0.344268 0.088694 0.082500
0.529535 0.156042 0.082500
0.601527 0.257453 0.082500
0.620650 0.361976 0.082500
0.607184 0.453767 0.082500
0.573365 0.531481 0.082500
0.546233 0.607184 0.082500
0.529825 0.679364 0.082500
0.562911 0.759092 0.082500
0.630899 0.828578 0.082500
0.779705 0.871221 0.082500
1.000000 0.893020 0.082500
0.000000 0.080256 0.082500
0.282508 0.106953 0.082500
0.457214 0.161219 0.082500
0.526542 0.252239 0.082500
0.551286 0.349249 0.082500
0.531481 0.426635 0.082500
0.500000 0.500000 0.082500
0.468519 0.573365 0.082500
0.448714 0.650751 0.082500
0.473458 0.747761 0.082500
0.542786 0.838781 0.082500
0.717493 0.893047 0.082500
1.000000 0.919745 0.082500
0.000000 0.106980 0.082500
0.220296 0.128779 0.082500
0.369101 0.171422 0.082500
0.437089 0.240908 0.082500
0.470175 0.320636 0.082500
0.453767 0.392816 0.082500
0.426635 0.468519 0.082500
0.392816 0.546233 0.082500
0.379350 0.638024 0.082500
0.398473 0.742547 0.082500
0.470464 0.843958 0.082500
0.655733 0.911306 0.082500
1.000000 0.938710 0.082500
0.000000 0.141544 0.082500
0.161205 0.159468 0.082500
0.284601 0.197653 0.082500
0.343728 0.257204 0.082500
0.373483 0.319606 0.082500
0.361976 0.379350 0.082500
0.349249 0.448714 0.082500
0.320636 0.529825 0.082500
0.319606 0.626517 0.082500
0.330431 0.742160 0.082500
0.407842 0.848408 0.082500
0.601187 0.926875 0.082500
1.000000 0.952219 0.082500
0.000000 0.197213 0.082500
0.096142 0.211050 0.082500
0.176590 0.233346 0.082500
0.227015 0.275913 0.082500
0.257840 0.330431 0.082500
0.257453 0.398473 0.082500
0.252239 0.473458 0.082500
0.240908 0.562911 0.082500
0.257204 0.656272 0.082500
0.275913 0.772985 0.082500
0.358867 0.866847 0.082500
0.562463 0.943654 0.082500
1.000000 0.963853 0.082500
0.000000 0.276355 0.082500
0.056678 0.291518 0.082500
0.103831 0.319000 0.082500
0.133153 0.358867 0.082500
0.151592 0.407842 0.082500
0.156042 0.470464 0.082500
0.161219 0.542786 0.082500
0.171422 0.630899 0.082500
0.197653 0.715399 0.082500
0.233346 0.823410 0.082500
0.319000 0.896169 0.082500
0.535728 0.961043 0.082500
1.000000 0.974726 0.082500
0.000000 0.515336 0.082500
0.019870 0.519668 0.082500
0.038957 0.535728 0.082500
0.056346 0.562463 0.082500
0.073125 0.601187 0.082500
0.088694 0.655733 0.082500
0.106953 0.717493 0.082500
0.128779 0.779705 0.082500
0.159468 0.838795 0.082500
0.211050 0.903858 0.082500
0.291518 0.943323 0.082500
0.519668 0.980130 0.082500
1.000000 0.987011 0.082500
0.000000 1.000000 0.082500
0.012989 1.000000 0.082500
0.025274 1.000000 0.082500
0.036147 1.000000 0.082500
0.047781 1.000000 0.082500
0.061290 1.000000 0.082500
0.080255 1.000000 0.082500
0.106980 1.000000 0.082500
0.141544 1.000000 0.082500
0.197213 1.000000 0.082500
0.276355 1.000000 0.082500
0.515336 1.000000 0.082500
1.000000 1.000000 0.082500
0.000000 0.000000 0.165000
0.484664 0.000000 0.165000
0.723645 0.000000 0.165000
0.802787 0.000000 0.165000
0.858456 0.000000 0.165000
0.893020 0.000000 0.165000
0.919744 0.000000 0.165000
0.938710 0.000000 0.165000
0.952219 0.000000 0.165000
0.963853 0.000000 0.165000
0.974726 0.000000 0.165000
0.987011 0.000000 0.165000
1.000000 0.000000 0.165000
0.000000 0.012989 0.165000
0.480333 0.019870 0.165000
0.708482 0.056678 0.165000
0.788950 0.096142 0.165000
0.840532 0.161205 0.165000
0.871221 0.220296 0.165000
0.893047 0.282508 0.165000
0.911306 0.344268 0.165000
0.926875 0.398814 0.165000
0.943654 0.437538 0.165000
0.961043 0.464273 0.165000
0.980130 0.480333 0.165000
1.000000 0.484664 0.165000
0.000000 0.025274 0.165000
0.464273 0.038957 0.165000
[...]
POINT_DATA 845 
VECTORS pos float 
0.000000 0.000000 0.000000
0.484664 0.000000 0.000000
0.723645 0.000000 0.000000
0.802787 0.000000 0.000000
0.858456 0.000000 0.000000
0.893020 0.000000 0.000000
0.919744 0.000000 0.000000
0.938710 0.000000 0.000000
0.952219 0.000000 0.000000
0.963853 0.000000 0.000000
0.974726 0.000000 0.000000
0.987011 0.000000 0.000000
1.000000 0.000000 0.000000
0.000000 0.012989 0.000000
0.480333 0.019870 0.000000
0.708482 0.056678 0.000000
0.788950 0.096142 0.000000
0.840532 0.161205 0.000000
0.871221 0.220296 0.000000
0.893047 0.282508 0.000000
0.911306 0.344268 0.000000
0.926875 0.398814 0.000000
0.943654 0.437538 0.000000
0.961043 0.464273 0.000000
0.980130 0.480333 0.000000
1.000000 0.484664 0.000000
0.000000 0.025274 0.000000
0.464273 0.038957 0.000000
0.681000 0.103832 0.000000
0.766654 0.176590 0.000000
0.802347 0.284601 0.000000
0.828578 0.369101 0.000000
0.838781 0.457214 0.000000
0.843958 0.529535 0.000000
0.848408 0.592158 0.000000
0.866847 0.641133 0.000000
0.896168 0.681000 0.000000
0.943323 0.708482 0.000000
1.000000 0.723645 0.000000
0.000000 0.036147 0.000000
0.437538 0.056346 0.000000
0.641133 0.133153 0.000000
0.724087 0.227015 0.000000
0.742796 0.343728 0.000000
0.759092 0.437089 0.000000
0.747761 0.526542 0.000000
0.742547 0.601527 0.000000
0.742160 0.669569 0.000000
0.772985 0.724087 0.000000
0.823410 0.766654 0.000000
0.903858 0.788950 0.000000
1.000000 0.802787 0.000000
0.000000 0.047781 0.000000
0.398814 0.073125 0.000000
0.592158 0.151592 0.000000
0.669569 0.257840 0.000000
0.680393 0.373483 0.000000
0.679364 0.470175 0.000000
0.650751 0.551286 0.000000
0.638024 0.620650 0.000000
0.626517 0.680393 0.000000
0.656272 0.742796 0.000000
0.715399 0.802347 0.000000
0.838795 0.840532 0.000000
1.000000 0.858456 0.000000
0.000000 0.061291 0.000000
0.344268 0.088694 0.000000
0.529535 0.156042 0.000000
0.601527 0.257453 0.000000
0.620650 0.361976 0.000000
0.607184 0.453767 0.000000
0.573365 0.531481 0.000000
0.546233 0.607184 0.000000
0.529825 0.679364 0.000000
0.562911 0.759092 0.000000
0.630899 0.828578 0.000000
0.779705 0.871221 0.000000
1.000000 0.893020 0.000000
0.000000 0.080256 0.000000
0.282508 0.106953 0.000000
0.457214 0.161219 0.000000
0.526542 0.252239 0.000000
0.551286 0.349249 0.000000
0.531481 0.426635 0.000000
0.500000 0.500000 0.000000
0.468519 0.573365 0.000000
0.448714 0.650751 0.000000
0.473458 0.747761 0.000000
0.542786 0.838781 0.000000
0.717493 0.893047 0.000000
1.000000 0.919745 0.000000
0.000000 0.106980 0.000000
0.220296 0.128779 0.000000
0.369101 0.171422 0.000000
0.437089 0.240908 0.000000
0.470175 0.320636 0.000000
0.453767 0.392816 0.000000
0.426635 0.468519 0.000000
0.392816 0.546233 0.000000
0.379350 0.638024 0.000000
0.398473 0.742547 0.000000
0.470464 0.843958 0.000000
0.655733 0.911306 0.000000
1.000000 0.938710 0.000000
0.000000 0.141544 0.000000
0.161205 0.159468 0.000000
0.284601 0.197653 0.000000
0.343728 0.257204 0.000000
0.373483 0.319606 0.000000
0.361976 0.379350 0.000000
0.349249 0.448714 0.000000
0.320636 0.529825 0.000000
0.319606 0.626517 0.000000
0.330431 0.742160 0.000000
0.407842 0.848408 0.000000
0.601187 0.926875 0.000000
1.000000 0.952219 0.000000
0.000000 0.197213 0.000000
0.096142 0.211050 0.000000
0.176590 0.233346 0.000000
0.227015 0.275913 0.000000
0.257840 0.330431 0.000000
0.257453 0.398473 0.000000
0.252239 0.473458 0.000000
0.240908 0.562911 0.000000
0.257204 0.656272 0.000000
0.275913 0.772985 0.000000
0.358867 0.866847 0.000000
0.562463 0.943654 0.000000
1.000000 0.963853 0.000000
0.000000 0.276355 0.000000
0.056678 0.291518 0.000000
0.103831 0.319000 0.000000
0.133153 0.358867 0.000000
0.151592 0.407842 0.000000
0.156042 0.470464 0.000000
0.161219 0.542786 0.000000
0.171422 0.630899 0.000000
0.197653 0.715399 0.000000
0.233346 0.823410 0.000000
0.319000 0.896169 0.000000
0.535728 0.961043 0.000000
1.000000 0.974726 0.000000
0.000000 0.515336 0.000000
0.019870 0.519668 0.000000
0.038957 0.535728 0.000000
0.056346 0.562463 0.000000
0.073125 0.601187 0.000000
0.088694 0.655733 0.000000
0.106953 0.717493 0.000000
0.128779 0.779705 0.000000
0.159468 0.838795 0.000000
0.211050 0.903858 0.000000
0.291518 0.943323 0.000000
0.519668 0.980130 0.000000
1.000000 0.987011 0.000000
0.000000 1.000000 0.000000
0.012989 1.000000 0.000000
0.025274 1.000000 0.000000
0.036147 1.000000 0.000000
0.047781 1.000000 0.000000
0.061290 1.000000 0.000000
0.080255 1.000000 0.000000
0.106980 1.000000 0.000000
0.141544 1.000000 0.000000
0.197213 1.000000 0.000000
0.276355 1.000000 0.000000
0.515336 1.000000 0.000000
1.000000 1.000000 0.000000
0.000000 0.000000 0.082500
0.484664 0.000000 0.082500
0.723645 0.000000 0.082500
0.802787 0.000000 0.082500
0.858456 0.000000 0.082500
0.893020 0.000000 0.082500
0.919744 0.000000 0.082500
0.938710 0.000000 0.082500
0.952219 0.000000 0.082500
0.963853 0.000000 0.082500
0.974726 0.000000 0.082500
0.987011 0.000000 0.082500
1.000000 0.000000 0.082500
0.000000 0.012989 0.082500
0.480333 0.019870 0.082500
0.708482 0.056678 0.082500
0.788950 0.096142 0.082500
0.840532 0.161205 0.082500
0.871221 0.220296 0.082500
0.893047 0.282508 0.082500
0.911306 0.344268 0.082500
0.926875 0.398814 0.082500
0.943654 0.437538 0.082500
0.961043 0.464273 0.082500
0.980130 0.480333 0.082500
1.000000 0.484664 0.082500
0.000000 0.025274 0.082500
0.464273 0.038957 0.082500
0.681000 0.103832 0.082500
0.766654 0.176590 0.082500
0.802347 0.284601 0.082500
0.828578 0.369101 0.082500
0.838781 0.457214 0.082500
0.843958 0.529535 0.082500
0.848408 0.592158 0.082500
0.866847 0.641133 0.082500
0.896168 0.681000 0.082500
0.943323 0.708482 0.082500
1.000000 0.723645 0.082500
0.000000 0.036147 0.082500
0.437538 0.056346 0.082500
0.641133 0.133153 0.082500
0.724087 0.227015 0.082500
0.742796 0.343728 0.082500
0.759092 0.437089 0.082500
0.747761 0.526542 0.082500
0.742547 0.601527 0.082500
0.742160 0.669569 0.082500
0.772985 0.724087 0.082500
0.823410 0.766654 0.082500
0.903858 0.788950 0.082500
1.000000 0.802787 0.082500
0.000000 0.047781 0.082500
0.398814 0.073125 0.082500
0.592158 0.151592 0.082500
0.669569 0.257840 0.082500
0.680393 0.373483 0.082500
0.679364 0.470175 0.082500
0.650751 0.551286 0.082500
0.638024 0.620650 0.082500
0.626517 0.680393 0.082500
0.656272 0.742796 0.082500
0.715399 0.802347 0.082500
0.838795 0.840532 0.082500
1.000000 0.858456 0.082500
0.000000 0.061291 0.082500
0.344268 0.088694 0.082500
0.529535 0.156042 0.082500
0.601527 0.257453 0.082500
0.620650 0.361976 0.082500
0.607184 0.453767 0.082500
0.573365 0.531481 0.082500
0.546233 0.607184 0.082500
0.529825 0.679364 0.082500
0.562911 0.759092 0.082500
0.630899 0.828578 0.082500
0.779705 0.871221 0.082500
1.000000 0.893020 0.082500
0.000000 0.080256 0.082500
0.282508 0.106953 0.082500
0.457214 0.161219 0.082500
0.526542 0.252239 0.082500
0.551286 0.349249 0.082500
0.531481 0.426635 0.082500
0.500000 0.500000 0.082500
0.468519 0.573365 0.082500
0.448714 0.650751 0.082500
0.473458 0.747761 0.082500
0.542786 0.838781 0.082500
0.717493 0.893047 0.082500
1.000000 0.919745 0.082500
0.000000 0.106980 0.082500
0.220296 0.128779 0.082500
0.369101 0.171422 0.082500
0.437089 0.240908 0.082500
0.470175 0.320636 0.082500
0.453767 0.392816 0.082500
0.426635 0.468519 0.082500
0.392816 0.546233 0.082500
0.379350 0.638024 0.082500
0.398473 0.742547 0.082500
0.470464 0.843958 0.082500
0.655733 0.911306 0.082500
1.000000 0.938710 0.082500
0.000000 0.141544 0.082500
0.161205 0.159468 0.082500
0.284601 0.197653 0.082500
0.343728 0.257204 0.082500
0.373483 0.319606 0.082500
0.361976 0.379350 0.082500
0.349249 0.448714 0.082500
0.320636 0.529825 0.082500
0.319606 0.626517 0.082500
0.330431 0.742160 0.082500
0.407842 0.848408 0.082500
0.601187 0.926875 0.082500
1.000000 0.952219 0.082500
0.000000 0.197213 0.082500
0.096142 0.211050 0.082500
0.176590 0.233346 0.082500
0.227015 0.275913 0.082500
0.257840 0.330431 0.082500
0.257453 0.398473 0.082500
0.252239 0.473458 0.082500
0.240908 0.562911 0.082500
0.257204 0.656272 0.082500
0.275913 0.772985 0.082500
0.358867 0.866847 0.082500
0.562463 0.943654 0.082500
1.000000 0.963853 0.082500
0.000000 0.276355 0.082500
0.056678 0.291518 0.082500
0.103831 0.319000 0.082500
0.133153 0.358867 0.082500
0.151592 0.407842 0.082500
0.156042 0.470464 0.082500
0.161219 0.542786 0.082500
0.171422 0.630899 0.082500
0.197653 0.715399 0.082500
0.233346 0.823410 0.082500
0.319000 0.896169 0.082500
0.535728 0.961043 0.082500
1.000000 0.974726 0.082500
0.000000 0.515336 0.082500
0.019870 0.519668 0.082500
0.038957 0.535728 0.082500
0.056346 0.562463 0.082500
0.073125 0.601187 0.082500
0.088694 0.655733 0.082500
0.106953 0.717493 0.082500
0.128779 0.779705 0.082500
0.159468 0.838795 0.082500
0.211050 0.903858 0.082500
0.291518 0.943323 0.082500
0.519668 0.980130 0.082500
1.000000 0.987011 0.082500
0.000000 1.000000 0.082500
0.012989 1.000000 0.082500
0.025274 1.000000 0.082500
0.036147 1.000000 0.082500
0.047781 1.000000 0.082500
0.061290 1.000000 0.082500
0.080255 1.000000 0.082500
0.106980 1.000000 0.082500
0.141544 1.000000 0.082500
0.197213 1.000000 0.082500
0.276355 1.000000 0.082500
0.515336 1.000000 0.082500
1.000000 1.000000 0.082500
0.000000 0.000000 0.165000
0.484664 0.000000 0.165000
0.723645 0.000000 0.165000
0.802787 0.000000 0.165000
0.858456 0.000000 0.165000
0.893020 0.000000 0.165000
0.919744 0.000000 0.165000
0.938710 0.000000 0.165000
0.952219 0.000000 0.165000
0.963853 0.000000 0.165000
0.974726 0.000000 0.165000
0.987011 0.000000 0.165000
1.000000 0.000000 0.165000
0.000000 0.012989 0.165000
0.480333 0.019870 0.165000
0.708482 0.056678 0.165000
0.788950 0.096142 0.165000
0.840532 0.161205 0.165000
0.871221 0.220296 0.165000
0.893047 0.282508 0.165000
0.911306 0.344268 0.165000
0.926875 0.398814 0.165000
0.943654 0.437538 0.165000
0.961043 0.464273 0.165000
0.980130 0.480333 0.165000
1.000000 0.484664 0.165000
0.000000 0.025274 0.165000
0.464273 0.038957 0.165000
0.681000 0.103832 0.165000
0.766654 0.176590 0.165000
0.802347 0.284601 0.165000
0.828578 0.369101 0.165000
0.838781 0.457214 0.165000
0.843958 0.529535 0.165000
0.848408 0.592158 0.165000
0.866847 0.641133 0.165000
0.896168 0.681000 0.165000
0.943323 0.708482 0.165000
1.000000 0.723645 0.165000
0.000000 0.036147 0.165000
0.437538 0.056346 0.165000
0.641133 0.133153 0.165000
0.724087 0.227015 0.165000
0.742796 0.343728 0.165000
0.759092 0.437089 0.165000
0.747761 0.526542 0.165000
0.742547 0.601527 0.165000
0.742160 0.669569 0.165000
0.772985 0.724087 0.165000
0.823410 0.766654 0.165000
0.903858 0.788950 0.165000
1.000000 0.802787 0.165000
0.000000 0.047781 0.165000
0.398814 0.073125 0.165000
0.592158 0.151592 0.165000
0.669569 0.257840 0.165000
0.680393 0.373483 0.165000
0.679364 0.470175 0.165000
0.650751 0.551286 0.165000
0.638024 0.620650 0.165000
0.626517 0.680393 0.165000
0.656272 0.742796 0.165000
0.715399 0.802347 0.165000
0.838795 0.840532 0.165000
1.000000 0.858456 0.165000
0.000000 0.061291 0.165000
0.344268 0.088694 0.165000
0.529535 0.156042 0.165000
0.601527 0.257453 0.165000
0.620650 0.361976 0.165000
0.607184 0.453767 0.165000
0.573365 0.531481 0.165000
0.546233 0.607184 0.165000
0.529825 0.679364 0.165000
0.562911 0.759092 0.165000
0.630899 0.828578 0.165000
0.779705 0.871221 0.165000
1.000000 0.893020 0.165000
0.000000 0.080256 0.165000
0.282508 0.106953 0.165000
0.457214 0.161219 0.165000
0.526542 0.252239 0.165000
0.551286 0.349249 0.165000
0.531481 0.426635 0.165000
0.500000 0.500000 0.165000
0.468519 0.573365 0.165000
0.448714 0.650751 0.165000
0.473458 0.747761 0.165000
0.542786 0.838781 0.165000
0.717493 0.893047 0.165000
1.000000 0.919745 0.165000
0.000000 0.106980 0.165000
0.220296 0.128779 0.165000
0.369101 0.171422 0.165000
0.437089 0.240908 0.165000
0.470175 0.320636 0.165000
0.453767 0.392816 0.165000
0.426635 0.468519 0.165000
0.392816 0.546233 0.165000
0.379350 0.638024 0.165000
0.398473 0.742547 0.165000
0.470464 0.843958 0.165000
0.655733 0.911306 0.165000
1.000000 0.938710 0.165000
0.000000 0.141544 0.165000
0.161205 0.159468 0.165000
0.284601 0.197653 0.165000
0.343728 0.257204 0.165000
0.373483 0.319606 0.165000
0.361976 0.379350 0.165000
0.349249 0.448714 0.165000
0.320636 0.529825 0.165000
0.319606 0.626517 0.165000
0.330431 0.742160 0.165000
0.407842 0.848408 0.165000
0.601187 0.926875 0.165000
1.000000 0.952219 0.165000
0.000000 0.197213 0.165000
0.096142 0.211050 0.165000
0.176590 0.233346 0.165000
0.227015 0.275913 0.165000
0.257840 0.330431 0.165000
0.257453 0.398473 0.165000
0.252239 0.473458 0.165000
0.240908 0.562911 0.165000
0.257204 0.656272 0.165000
0.275913 0.772985 0.165000
0.358867 0.866847 0.165000
0.562463 0.943654 0.165000
1.000000 0.963853 0.165000
0.000000 0.276355 0.165000
0.056678 0.291518 0.165000
0.103831 0.319000 0.165000
0.133153 0.358867 0.165000
0.151592 0.407842 0.165000
0.156042 0.470464 0.165000
0.161219 0.542786 0.165000
0.171422 0.630899 0.165000
0.197653 0.715399 0.165000
0.233346 0.823410 0.165000
0.319000 0.896169 0.165000
0.535728 0.961043 0.165000
1.000000 0.974726 0.165000
0.000000 0.515336 0.165000
0.019870 0.519668 0.165000
0.038957 0.535728 0.165000
0.056346 0.562463 0.165000
0.073125 0.601187 0.165000
0.088694 0.655733 0.165000
0.106953 0.717493 0.165000
0.128779 0.779705 0.165000
0.159468 0.838795 0.165000
0.211050 0.903858 0.165000
0.291518 0.943323 0.165000
0.519668 0.980130 0.165000
1.000000 0.987011 0.165000
0.000000 1.000000 0.165000
0.012989 1.000000 0.165000
0.025274 1.000000 0.165000
0.036147 1.000000 0.165000
0.047781 1.000000 0.165000
0.061290 1.000000 0.165000
0.080255 1.000000 0.165000
0.106980 1.000000 0.165000
0.141544 1.000000 0.165000
0.197213 1.000000 0.165000
0.276355 1.000000 0.165000
0.515336 1.000000 0.165000
1.000000 1.000000 0.165000
0.000000 0.000000 0.247500
0.484664 0.000000 0.247500
0.723645 0.000000 0.247500
0.802787 0.000000 0.247500
0.858456 0.000000 0.247500
0.893020 0.000000 0.247500
0.919744 0.000000 0.247500
0.938710 0.000000 0.247500
0.952219 0.000000 0.247500
0.963853 0.000000 0.247500
0.974726 0.000000 0.247500
0.987011 0.000000 0.247500
1.000000 0.000000 0.247500
0.000000 0.012989 0.247500
0.480333 0.019870 0.247500
0.708482 0.056678 0.247500
0.788950 0.096142 0.247500
0.840532 0.161205 0.247500
0.871221 0.220296 0.247500
0.893047 0.282508 0.247500
0.911306 0.344268 0.247500
0.926875 0.398814 0.247500
0.943654 0.437538 0.247500
0.961043 0.464273 0.247500
0.980130 0.480333 0.247500
1.000000 0.484664 0.247500
0.000000 0.025274 0.247500
0.464273 0.038957 0.247500
0.681000 0.103832 0.247500
0.766654 0.176590 0.247500
0.802347 0.284601 0.247500
0.828578 0.369101 0.247500
0.838781 0.457214 0.247500
0.843958 0.529535 0.247500
0.848408 0.592158 0.247500
0.866847 0.641133 0.247500
0.896168 0.681000 0.247500
0.943323 0.708482 0.247500
1.000000 0.723645 0.247500
0.000000 0.036147 0.247500
0.437538 0.056346 0.247500
0.641133 0.133153 0.247500
0.724087 0.227015 0.247500
0.742796 0.343728 0.247500
0.759092 0.437089 0.247500
0.747761 0.526542 0.247500
0.742547 0.601527 0.247500
0.742160 0.669569 0.247500
0.772985 0.724087 0.247500
0.823410 0.766654 0.247500
0.903858 0.788950 0.247500
1.000000 0.802787 0.247500
0.000000 0.047781 0.247500
0.398814 0.073125 0.247500
0.592158 0.151592 0.247500
0.669569 0.257840 0.247500
0.680393 0.373483 0.247500
0.679364 0.470175 0.247500
0.650751 0.551286 0.247500
0.638024 0.620650 0.247500
0.626517 0.680393 0.247500
0.656272 0.742796 0.247500
0.715399 0.802347 0.247500
0.838795 0.840532 0.247500
1.000000 0.858456 0.247500
0.000000 0.061291 0.247500
0.344268 0.088694 0.247500
0.529535 0.156042 0.247500
0.601527 0.257453 0.247500
0.620650 0.361976 0.247500
0.607184 0.453767 0.247500
0.573365 0.531481 0.247500
0.546233 0.607184 0.247500
0.529825 0.679364 0.247500
0.562911 0.759092 0.247500
0.630899 0.828578 0.247500
0.779705 0.871221 0.247500
1.000000 0.893020 0.247500
0.000000 0.080256 0.247500
0.282508 0.106953 0.247500
0.457214 0.161219 0.247500
0.526542 0.252239 0.247500
0.551286 0.349249 0.247500
0.531481 0.426635 0.247500
0.500000 0.500000 0.247500
0.468519 0.573365 0.247500
0.448714 0.650751 0.247500
0.473458 0.747761 0.247500
0.542786 0.838781 0.247500
0.717493 0.893047 0.247500
1.000000 0.919745 0.247500
0.000000 0.106980 0.247500
0.220296 0.128779 0.247500
0.369101 0.171422 0.247500
0.437089 0.240908 0.247500
0.470175 0.320636 0.247500
0.453767 0.392816 0.247500
0.426635 0.468519 0.247500
0.392816 0.546233 0.247500
0.379350 0.638024 0.247500
0.398473 0.742547 0.247500
0.470464 0.843958 0.247500
0.655733 0.911306 0.247500
1.000000 0.938710 0.247500
0.000000 0.141544 0.247500
0.161205 0.159468 0.247500
0.284601 0.197653 0.247500
0.343728 0.257204 0.247500
0.373483 0.319606 0.247500
0.361976 0.379350 0.247500
0.349249 0.448714 0.247500
0.320636 0.529825 0.247500
0.319606 0.626517 0.247500
0.330431 0.742160 0.247500
0.407842 0.848408 0.247500
0.601187 0.926875 0.247500
1.000000 0.952219 0.247500
0.000000 0.197213 0.247500
0.096142 0.211050 0.247500
0.176590 0.233346 0.247500
0.227015 0.275913 0.247500
0.257840 0.330431 0.247500
0.257453 0.398473 0.247500
0.252239 0.473458 0.247500
0.240908 0.562911 0.247500
0.257204 0.656272 0.247500
0.275913 0.772985 0.247500
0.358867 0.866847 0.247500
0.562463 0.943654 0.247500
1.000000 0.963853 0.247500
0.000000 0.276355 0.247500
0.056678 0.291518 0.247500
0.103831 0.319000 0.247500
0.133153 0.358867 0.247500
0.151592 0.407842 0.247500
0.156042 0.470464 0.247500
0.161219 0.542786 0.247500
0.171422 0.630899 0.247500
0.197653 0.715399 0.247500
0.233346 0.823410 0.247500
0.319000 0.896169 0.247500
0.535728 0.961043 0.247500
1.000000 0.974726 0.247500
0.000000 0.515336 0.247500
0.019870 0.519668 0.247500
0.038957 0.535728 0.247500
0.056346 0.562463 0.247500
0.073125 0.601187 0.247500
0.088694 0.655733 0.247500
0.106953 0.717493 0.247500
0.128779 0.779705 0.247500
0.159468 0.838795 0.247500
0.211050 0.903858 0.247500
0.291518 0.943323 0.247500
0.519668 0.980130 0.247500
1.000000 0.987011 0.247500
0.000000 1.000000 0.247500
0.012989 1.000000 0.247500
0.025274 1.000000 0.247500
0.036147 1.000000 0.247500
0.047781 1.000000 0.247500
0.061290 1.000000 0.247500
0.080255 1.000000 0.247500
0.106980 1.000000 0.247500
0.141544 1.000000 0.247500
0.197213 1.000000 0.247500
0.276355 1.000000 0.247500
0.515336 1.000000 0.247500
1.000000 1.000000 0.247500
0.000000 0.000000 0.330000
0.484664 0.000000 0.330000
0.723645 0.000000 0.330000
0.802787 0.000000 0.330000
0.858456 0.000000 0.330000
0.893020 0.000000 0.330000
0.919744 0.000000 0.330000
0.938710 0.000000 0.330000
0.952219 0.000000 0.330000
0.963853 0.000000 0.330000
0.974726 0.000000 0.330000
0.987011 0.000000 0.330000
1.000000 0.000000 0.330000
0.000000 0.012989 0.330000
0.480333 0.019870 0.330000
0.708482 0.056678 0.330000
0.788950 0.096142 0.330000
0.840532 0.161205 0.330000
0.871221 0.220296 0.330000
0.893047 0.282508 0.330000
0.911306 0.344268 0.330000
0.926875 0.398814 0.330000
0.943654 0.437538 0.330000
0.961043 0.464273 0.330000
0.980130 0.480333 0.330000
1.000000 0.484664 0.330000
0.000000 0.025274 0.330000
0.464273 0.038957 0.330000
0.681000 0.103832 0.330000
0.766654 0.176590 0.330000
0.802347 0.284601 0.330000
0.828578 0.369101 0.330000
0.838781 0.457214 0.330000
0.843958 0.529535 0.330000
0.848408 0.592158 0.330000
0.866847 0.641133 0.330000
0.896168 0.681000 0.330000
0.943323 0.708482 0.330000
1.000000 0.723645 0.330000
0.000000 0.036147 0.330000
0.437538 0.056346 0.330000
0.641133 0.133153 0.330000
0.724087 0.227015 0.330000
0.742796 0.343728 0.330000
0.759092 0.437089 0.330000
0.747761 0.526542 0.330000
0.742547 0.601527 0.330000
0.742160 0.669569 0.330000
0.772985 0.724087 0.330000
0.823410 0.766654 0.330000
0.903858 0.788950 0.330000
1.000000 0.802787 0.330000
0.000000 0.047781 0.330000
0.398814 0.073125 0.330000
0.592158 0.151592 0.330000
0.669569 0.257840 0.330000
0.680393 0.373483 0.330000
0.679364 0.470175 0.330000
0.650751 0.551286 0.330000
0.638024 0.620650 0.330000
0.626517 0.680393 0.330000
0.656272 0.742796 0.330000
0.715399 0.802347 0.330000