# vtk DataFile Version 2.0
Mesh for Fierro
ASCII 
DATASET UNSTRUCTURED_GRID

POINTS 845 float
0.000000 0.000000 0.000000
0.116400 0.000000 0.000000
0.228980 0.000000 0.000000
0.336719 0.000000 0.000000
0.437502 0.000000 0.000000
0.525470 0.000000 0.000000
0.607623 0.000000 0.000000
0.682234 0.000000 0.000000
0.751608 0.000000 0.000000
0.818440 0.000000 0.000000
0.881975 0.000000 0.000000
0.941919 0.000000 0.000000
1.000000 0.000000 0.000000
0.000000 0.058081 0.000000
0.115414 0.059136 0.000000
0.227104 0.061958 0.000000
0.333978 0.066662 0.000000
0.434229 0.072778 0.000000
0.521848 0.079866 0.000000
0.603997 0.087203 0.000000
0.678726 0.094523 0.000000
0.748258 0.101753 0.000000
0.815789 0.107749 0.000000
0.879933 0.112483 0.000000
0.940864 0.115414 0.000000
1.000000 0.116400 0.000000
0.000000 0.118025 0.000000
0.112483 0.120067 0.000000
0.221532 0.125641 0.000000
0.326142 0.134807 0.000000
0.425079 0.146455 0.000000
0.511371 0.159815 0.000000
0.592973 0.173660 0.000000
0.668225 0.187560 0.000000
0.738583 0.201152 0.000000
0.808159 0.212473 0.000000
0.874359 0.221532 0.000000
0.938042 0.227104 0.000000
1.000000 0.228980 0.000000
0.000000 0.181560 0.000000
0.107749 0.184211 0.000000
0.212473 0.191841 0.000000
0.313459 0.204292 0.000000
0.409970 0.220452 0.000000
0.494615 0.239154 0.000000
0.575621 0.258817 0.000000
0.651542 0.278447 0.000000
0.722898 0.297389 0.000000
0.795708 0.313459 0.000000
0.865193 0.326142 0.000000
0.933338 0.333978 0.000000
1.000000 0.336719 0.000000
0.000000 0.248392 0.000000
0.101753 0.251742 0.000000
0.201152 0.261417 0.000000
0.297389 0.277102 0.000000
0.391119 0.297158 0.000000
0.473038 0.320225 0.000000
0.553229 0.344474 0.000000
0.629945 0.368679 0.000000
0.702842 0.391119 0.000000
0.779548 0.409970 0.000000
0.853545 0.425079 0.000000
0.927222 0.434229 0.000000
1.000000 0.437502 0.000000
0.000000 0.317766 0.000000
0.094523 0.321274 0.000000
0.187560 0.331775 0.000000
0.278447 0.348458 0.000000
0.368679 0.370055 0.000000
0.448183 0.394834 0.000000
0.527556 0.421465 0.000000
0.605166 0.448183 0.000000
0.679775 0.473038 0.000000
0.760846 0.494615 0.000000
0.840185 0.511371 0.000000
0.920134 0.521848 0.000000
1.000000 0.525470 0.000000
0.000000 0.392377 0.000000
0.087203 0.396003 0.000000
0.173660 0.407027 0.000000
0.258817 0.424379 0.000000
0.344474 0.446771 0.000000
0.421465 0.472444 0.000000
0.500000 0.500000 0.000000
0.578535 0.527556 0.000000
0.655526 0.553229 0.000000
0.741183 0.575621 0.000000
0.826340 0.592973 0.000000
0.912797 0.603997 0.000000
1.000000 0.607623 0.000000
0.000000 0.474530 0.000000
0.079866 0.478152 0.000000
0.159815 0.488629 0.000000
0.239154 0.505385 0.000000
0.320225 0.526962 0.000000
0.394834 0.551817 0.000000
0.472444 0.578535 0.000000
0.551817 0.605166 0.000000
0.631321 0.629945 0.000000
0.721553 0.651542 0.000000
0.812440 0.668225 0.000000
0.905477 0.678726 0.000000
1.000000 0.682234 0.000000
0.000000 0.562498 0.000000
0.072778 0.565771 0.000000
0.146455 0.574921 0.000000
0.220452 0.590030 0.000000
0.297158 0.608881 0.000000
0.370055 0.631321 0.000000
0.446771 0.655526 0.000000
0.526962 0.679775 0.000000
0.608881 0.702842 0.000000
0.702611 0.722898 0.000000
0.798848 0.738583 0.000000
0.898247 0.748258 0.000000
1.000000 0.751608 0.000000
0.000000 0.663281 0.000000
0.066662 0.666022 0.000000
0.134807 0.673858 0.000000
0.204292 0.686541 0.000000
0.277102 0.702611 0.000000
0.348458 0.721553 0.000000
0.424379 0.741183 0.000000
0.505385 0.760846 0.000000
0.590030 0.779548 0.000000
0.686541 0.795708 0.000000
0.787527 0.808159 0.000000
0.892251 0.815789 0.000000
1.000000 0.818440 0.000000
0.000000 0.771020 0.000000
0.061958 0.772896 0.000000
0.125641 0.778468 0.000000
0.191841 0.787527 0.000000
0.261417 0.798848 0.000000
0.331775 0.812440 0.000000
0.407027 0.826340 0.000000
0.488629 0.840185 0.000000
0.574921 0.853545 0.000000
0.673858 0.865193 0.000000
0.778468 0.874359 0.000000
0.887517 0.879934 0.000000
1.000000 0.881975 0.000000
0.000000 0.883601 0.000000
0.059136 0.884586 0.000000
0.120066 0.887517 0.000000
0.184211 0.892251 0.000000
0.251742 0.898247 0.000000
0.321274 0.905477 0.000000
0.396003 0.912797 0.000000
0.478152 0.920134 0.000000
0.565771 0.927222 0.000000
0.666022 0.933338 0.000000
0.772896 0.938042 0.000000
0.884586 0.940864 0.000000
1.000000 0.941919 0.000000
0.000000 1.000000 0.000000
0.058081 1.000000 0.000000
0.118025 1.000000 0.000000
0.181560 1.000000 0.000000
0.248392 1.000000 0.000000
0.317766 1.000000 0.000000
0.392377 1.000000 0.000000
0.474530 1.000000 0.000000
0.562498 1.000000 0.000000
0.663281 1.000000 0.000000
0.771020 1.000000 0.000000
0.883601 1.000000 0.000000
1.000000 1.000000 0.000000
0.000000 0.000000 0.082500
0.116400 0.000000 0.082500
0.228980 0.000000 0.082500
0.336719 0.000000 0.082500
0.437502 0.000000 0.082500
0.525470 0.000000 0.082500
0.607623 0.000000 0.082500
0.682234 0.000000 0.082500
0.751608 0.000000 0.082500
0.818440 0.000000 0.082500
0.881975 0.000000 0.082500
0.941919 0.000000 0.082500
1.000000 0.000000 0.082500
0.000000 0.058081 0.082500
0.115414 0.059136 0.082500
0.227104 0.061958 0.082500
0.333978 0.066662 0.082500
0.434229 0.072778 0.082500
0.521848 0.079866 0.082500
0.603997 0.087203 0.082500
0.678726 0.094523 0.082500
0.748258 0.101753 0.082500
0.815789 0.107749 0.082500
0.879933 0.112483 0.082500
0.940864 0.115414 0.082500
1.000000 0.116400 0.082500
0.000000 0.118025 0.082500
0.112483 0.120067 0.082500
0.221532 0.125641 0.082500
0.326142 0.134807 0.082500
0.425079 0.146455 0.082500
0.511371 0.159815 0.082500
0.592973 0.173660 0.082500
0.668225 0.187560 0.082500
0.738583 0.201152 0.082500
0.808159 0.212473 0.082500
0.874359 0.221532 0.082500
0.938042 0.227104 0.082500
1.000000 0.228980 0.082500
0.000000 0.181560 0.082500
0.107749 0.184211 0.082500
0.212473 0.191841 0.082500
0.313459 0.204292 0.082500
0.409970 0.220452 0.082500
0.494615 0.239154 0.082500
0.575621 0.258817 0.082500
0.651542 0.278447 0.082500
0.722898 0.297389 0.082500
0.795708 0.313459 0.082500
0.865193 0.326142 0.082500
0.933338 0.333978 0.082500
1.000000 0.336719 0.082500
0.000000 0.248392 0.082500
0.101753 0.251742 0.082500
0.201152 0.261417 0.082500
0.297389 0.277102 0.082500
0.391119 0.297158 0.082500
0.473038 0.320225 0.082500
0.553229 0.344474 0.082500
0.629945 0.368679 0.082500
0.702842 0.391119 0.082500
0.779548 0.409970 0.082500
0.853545 0.425079 0.082500
0.927222 0.434229 0.082500
1.000000 0.437502 0.082500
0.000000 0.317766 0.082500
0.094523 0.321274 0.082500
0.187560 0.331775 0.082500
0.278447 0.348458 0.082500
0.368679 0.370055 0.082500
0.448183 0.394834 0.082500
0.527556 0.421465 0.082500
0.605166 0.448183 0.082500
0.679775 0.473038 0.082500
0.760846 0.494615 0.082500
0.840185 0.511371 0.082500
0.920134 0.521848 0.082500
1.000000 0.525470 0.082500
0.000000 0.392377 0.082500
0.087203 0.396003 0.082500
0.173660 0.407027 0.082500
0.258817 0.424379 0.082500
0.344474 0.446771 0.082500
0.421465 0.472444 0.082500
0.500000 0.500000 0.082500
0.578535 0.527556 0.082500
0.655526 0.553229 0.082500
0.741183 0.575621 0.082500
0.826340 0.592973 0.082500
0.912797 0.603997 0.082500
1.000000 0.607623 0.082500
0.000000 0.474530 0.082500
0.079866 0.478152 0.082500
0.159815 0.488629 0.082500
0.239154 0.505385 0.082500
0.320225 0.526962 0.082500
0.394834 0.551817 0.082500
0.472444 0.578535 0.082500
0.551817 0.605166 0.082500
0.631321 0.629945 0.082500
0.721553 0.651542 0.082500
0.812440 0.668225 0.082500
0.905477 0.678726 0.082500
1.000000 0.682234 0.082500
0.000000 0.562498 0.082500
0.072778 0.565771 0.082500
0.146455 0.574921 0.082500
0.220452 0.590030 0.082500
0.297158 0.608881 0.082500
0.370055 0.631321 0.082500
0.446771 0.655526 0.082500
0.526962 0.679775 0.082500
0.608881 0.702842 0.082500
0.702611 0.722898 0.082500
0.798848 0.738583 0.082500
0.898247 0.748258 0.082500
1.000000 0.751608 0.082500
0.000000 0.663281 0.082500
0.066662 0.666022 0.082500
0.134807 0.673858 0.082500
0.204292 0.686541 0.082500
0.277102 0.702611 0.082500
0.348458 0.721553 0.082500
0.424379 0.741183 0.082500
0.505385 0.760846 0.082500
0.590030 0.779548 0.082500
0.686541 0.795708 0.082500
0.787527 0.808159 0.082500
0.892251 0.815789 0.082500
1.000000 0.818440 0.082500
0.000000 0.771020 0.082500
0.061958 0.772896 0.082500
0.125641 0.778468 0.082500
0.191841 0.787527 0.082500
0.261417 0.798848 0.082500
0.331775 0.812440 0.082500
0.407027 0.826340 0.082500
0.488629 0.840185 0.082500
0.574921 0.853545 0.082500
0.673858 0.865193 0.082500
0.778468 0.874359 0.082500
0.887517 0.879934 0.082500
1.000000 0.881975 0.082500
0.000000 0.883601 0.082500
0.059136 0.884586 0.082500
0.120066 0.887517 0.082500
0.184211 0.892251 0.082500
0.251742 0.898247 0.082500
0.321274 0.905477 0.082500
0.396003 0.912797 0.082500
0.478152 0.920134 0.082500
0.565771 0.927222 0.082500
0.666022 0.933338 0.082500
0.772896 0.938042 0.082500
0.884586 0.940864 0.082500
1.000000 0.941919 0.082500
0.000000 1.000000 0.082500
0.058081 1.000000 0.082500
0.118025 1.000000 0.082500
0.181560 1.000000 0.082500
0.248392 1.000000 0.082500
0.317766 1.000000 0.082500
0.392377 1.000000 0.082500
0.474530 1.000000 0.082500
0.562498 1.000000 0.082500
0.663281 1.000000 0.082500
0.771020 1.000000 0.082500
0.883601 1.000000 0.082500
1.000000 1.000000 0.082500
0.000000 0.000000 0.165000
0.116400 0.000000 0.165000
0.228980 0.000000 0.165000
0.336719 0.000000 0.165000
0.437502 0.000000 0.165000
0.525470 0.000000 0.165000
0.607623 0.000000 0.165000
0.682234 0.000000 0.165000
0.751608 0.000000 0.165000
0.818440 0.000000 0.165000
0.881975 0.000000 0.165000
0.941919 0.000000 0.165000
1.000000 0.000000 0.165000
0.000000 0.058081 0.165000
0.115414 0.059136 0.165000
0.227104 0.061958 0.165000
0.333978 0.066662 0.165000
0.434229 0.072778 0.165000
0.521848 0.079866 0.165000
0.603997 0.087203 0.165000
0.678726 0.094523 0.165000
0.748258 0.101753 0.165000
0.815789 0.107749 0.165000
0.879933 0.112483 0.165000
0.940864 0.115414 0.165000
1.000000 0.116400 0.165000
0.000000 0.118025 0.165000
0.112483 0.120067 0.165000
[...]
POINT_DATA 845 
VECTORS pos float 
0.000000 0.000000 0.000000
0.116400 0.000000 0.000000
0.228980 0.000000 0.000000
0.336719 0.000000 0.000000
0.437502 0.000000 0.000000
0.525470 0.000000 0.000000
0.607623 0.000000 0.000000
0.682234 0.000000 0.000000
0.751608 0.000000 0.000000
0.818440 0.000000 0.000000
0.881975 0.000000 0.000000
0.941919 0.000000 0.000000
1.000000 0.000000 0.000000
0.000000 0.058081 0.000000
0.115414 0.059136 0.000000
0.227104 0.061958 0.000000
0.333978 0.066662 0.000000
0.434229 0.072778 0.000000
0.521848 0.079866 0.000000
0.603997 0.087203 0.000000
0.678726 0.094523 0.000000
0.748258 0.101753 0.000000
0.815789 0.107749 0.000000
0.879933 0.112483 0.000000
0.940864 0.115414 0.000000
1.000000 0.116400 0.000000
0.000000 0.118025 0.000000
0.112483 0.120067 0.000000
0.221532 0.125641 0.000000
0.326142 0.134807 0.000000
0.425079 0.146455 0.000000
0.511371 0.159815 0.000000
0.592973 0.173660 0.000000
0.668225 0.187560 0.000000
0.738583 0.201152 0.000000
0.808159 0.212473 0.000000
0.874359 0.221532 0.000000
0.938042 0.227104 0.000000
1.000000 0.228980 0.000000
0.000000 0.181560 0.000000
0.107749 0.184211 0.000000
0.212473 0.191841 0.000000
0.313459 0.204292 0.000000
0.409970 0.220452 0.000000
0.494615 0.239154 0.000000
0.575621 0.258817 0.000000
0.651542 0.278447 0.000000
0.722898 0.297389 0.000000
0.795708 0.313459 0.000000
0.865193 0.326142 0.000000
0.933338 0.333978 0.000000
1.000000 0.336719 0.000000
0.000000 0.248392 0.000000
0.101753 0.251742 0.000000
0.201152 0.261417 0.000000
0.297389 0.277102 0.000000
0.391119 0.297158 0.000000
0.473038 0.320225 0.000000
0.553229 0.344474 0.000000
0.629945 0.368679 0.000000
0.702842 0.391119 0.000000
0.779548 0.409970 0.000000
0.853545 0.425079 0.000000
0.927222 0.434229 0.000000
1.000000 0.437502 0.000000
0.000000 0.317766 0.000000
0.094523 0.321274 0.000000
0.187560 0.331775 0.000000
0.278447 0.348458 0.000000
0.368679 0.370055 0.000000
0.448183 0.394834 0.000000
0.527556 0.421465 0.000000
0.605166 0.448183 0.000000
0.679775 0.473038 0.000000
0.760846 0.494615 0.000000
0.840185 0.511371 0.000000
0.920134 0.521848 0.000000
1.000000 0.525470 0.000000
0.000000 0.392377 0.000000
0.087203 0.396003 0.000000
0.173660 0.407027 0.000000
0.258817 0.424379 0.000000
0.344474 0.446771 0.000000
0.421465 0.472444 0.000000
0.500000 0.500000 0.000000
0.578535 0.527556 0.000000
0.655526 0.553229 0.000000
0.741183 0.575621 0.000000
0.826340 0.592973 0.000000
0.912797 0.603997 0.000000
1.000000 0.607623 0.000000
0.000000 0.474530 0.000000
0.079866 0.478152 0.000000
0.159815 0.488629 0.000000
0.239154 0.505385 0.000000
0.320225 0.526962 0.000000
0.394834 0.551817 0.000000
0.472444 0.578535 0.000000
0.551817 0.605166 0.000000
0.631321 0.629945 0.000000
0.721553 0.651542 0.000000
0.812440 0.668225 0.000000
0.905477 0.678726 0.000000
1.000000 0.682234 0.000000
0.000000 0.562498 0.000000
0.072778 0.565771 0.000000
0.146455 0.574921 0.000000
0.220452 0.590030 0.000000
0.297158 0.608881 0.000000
0.370055 0.631321 0.000000
0.446771 0.655526 0.000000
0.526962 0.679775 0.000000
0.608881 0.702842 0.000000
0.702611 0.722898 0.000000
0.798848 0.738583 0.000000
0.898247 0.748258 0.000000
1.000000 0.751608 0.000000
0.000000 0.663281 0.000000
0.066662 0.666022 0.000000
0.134807 0.673858 0.000000
0.204292 0.686541 0.000000
0.277102 0.702611 0.000000
0.348458 0.721553 0.000000
0.424379 0.741183 0.000000
0.505385 0.760846 0.000000
0.590030 0.779548 0.000000
0.686541 0.795708 0.000000
0.787527 0.808159 0.000000
0.892251 0.815789 0.000000
1.000000 0.818440 0.000000
0.000000 0.771020 0.000000
0.061958 0.772896 0.000000
0.125641 0.778468 0.000000
0.191841 0.787527 0.000000
0.261417 0.798848 0.000000
0.331775 0.812440 0.000000
0.407027 0.826340 0.000000
0.488629 0.840185 0.000000
0.574921 0.853545 0.000000
0.673858 0.865193 0.000000
0.778468 0.874359 0.000000
0.887517 0.879934 0.000000
1.000000 0.881975 0.000000
0.000000 0.883601 0.000000
0.059136 0.884586 0.000000
0.120066 0.887517 0.000000
0.184211 0.892251 0.000000
0.251742 0.898247 0.000000
0.321274 0.905477 0.000000
0.396003 0.912797 0.000000
0.478152 0.920134 0.000000
0.565771 0.927222 0.000000
0.666022 0.933338 0.000000
0.772896 0.938042 0.000000
0.884586 0.940864 0.000000
1.000000 0.941919 0.000000
0.000000 1.000000 0.000000
0.058081 1.000000 0.000000
0.118025 1.000000 0.000000
0.181560 1.000000 0.000000
0.248392 1.000000 0.000000
0.317766 1.000000 0.000000
0.392377 1.000000 0.000000
0.474530 1.000000 0.000000
0.562498 1.000000 0.000000
0.663281 1.000000 0.000000
0.771020 1.000000 0.000000
0.883601 1.000000 0.000000
1.000000 1.000000 0.000000
0.000000 0.000000 0.082500
0.116400 0.000000 0.082500
0.228980 0.000000 0.082500
0.336719 0.000000 0.082500
0.437502 0.000000 0.082500
0.525470 0.000000 0.082500
0.607623 0.000000 0.082500
0.682234 0.000000 0.082500
0.751608 0.000000 0.082500
0.818440 0.000000 0.082500
0.881975 0.000000 0.082500
0.941919 0.000000 0.082500
1.000000 0.000000 0.082500
0.000000 0.058081 0.082500
0.115414 0.059136 0.082500
0.227104 0.061958 0.082500
0.333978 0.066662 0.082500
0.434229 0.072778 0.082500
0.521848 0.079866 0.082500
0.603997 0.087203 0.082500
0.678726 0.094523 0.082500
0.748258 0.101753 0.082500
0.815789 0.107749 0.082500
0.879933 0.112483 0.082500
0.940864 0.115414 0.082500
1.000000 0.116400 0.082500
0.000000 0.118025 0.082500
0.112483 0.120067 0.082500
0.221532 0.125641 0.082500
0.326142 0.134807 0.082500
0.425079 0.146455 0.082500
0.511371 0.159815 0.082500
0.592973 0.173660 0.082500
0.668225 0.187560 0.082500
0.738583 0.201152 0.082500
0.808159 0.212473 0.082500
0.874359 0.221532 0.082500
0.938042 0.227104 0.082500
1.000000 0.228980 0.082500
0.000000 0.181560 0.082500
0.107749 0.184211 0.082500
0.212473 0.191841 0.082500
0.313459 0.204292 0.082500
0.409970 0.220452 0.082500
0.494615 0.239154 0.082500
0.575621 0.258817 0.082500
0.651542 0.278447 0.082500
0.722898 0.297389 0.082500
0.795708 0.313459 0.082500
0.865193 0.326142 0.082500
0.933338 0.333978 0.082500
1.000000 0.336719 0.082500
0.000000 0.248392 0.082500
0.101753 0.251742 0.082500
0.201152 0.261417 0.082500
0.297389 0.277102 0.082500
0.391119 0.297158 0.082500
0.473038 0.320225 0.082500
0.553229 0.344474 0.082500
0.629945 0.368679 0.082500
0.702842 0.391119 0.082500
0.779548 0.409970 0.082500
0.853545 0.425079 0.082500
0.927222 0.434229 0.082500
1.000000 0.437502 0.082500
0.000000 0.317766 0.082500
0.094523 0.321274 0.082500
0.187560 0.331775 0.082500
0.278447 0.348458 0.082500
0.368679 0.370055 0.082500
0.448183 0.394834 0.082500
0.527556 0.421465 0.082500
0.605166 0.448183 0.082500
0.679775 0.473038 0.082500
0.760846 0.494615 0.082500
0.840185 0.511371 0.082500
0.920134 0.521848 0.082500
1.000000 0.525470 0.082500
0.000000 0.392377 0.082500
0.087203 0.396003 0.082500
0.173660 0.407027 0.082500
0.258817 0.424379 0.082500
0.344474 0.446771 0.082500
0.421465 0.472444 0.082500
0.500000 0.500000 0.082500
0.578535 0.527556 0.082500
0.655526 0.553229 0.082500
0.741183 0.575621 0.082500
0.826340 0.592973 0.082500
0.912797 0.603997 0.082500
1.000000 0.607623 0.082500
0.000000 0.474530 0.082500
0.079866 0.478152 0.082500
0.159815 0.488629 0.082500
0.239154 0.505385 0.082500
0.320225 0.526962 0.082500
0.394834 0.551817 0.082500
0.472444 0.578535 0.082500
0.551817 0.605166 0.082500
0.631321 0.629945 0.082500
0.721553 0.651542 0.082500
0.812440 0.668225 0.082500
0.905477 0.678726 0.082500
1.000000 0.682234 0.082500
0.000000 0.562498 0.082500
0.072778 0.565771 0.082500
0.146455 0.574921 0.082500
0.220452 0.590030 0.082500
0.297158 0.608881 0.082500
0.370055 0.631321 0.082500
0.446771 0.655526 0.082500
0.526962 0.679775 0.082500
0.608881 0.702842 0.082500
0.702611 0.722898 0.082500
0.798848 0.738583 0.082500
0.898247 0.748258 0.082500
1.000000 0.751608 0.082500
0.000000 0.663281 0.082500
0.066662 0.666022 0.082500
0.134807 0.673858 0.082500
0.204292 0.686541 0.082500
0.277102 0.702611 0.082500
0.348458 0.721553 0.082500
0.424379 0.741183 0.082500
0.505385 0.760846 0.082500
0.590030 0.779548 0.082500
0.686541 0.795708 0.082500
0.787527 0.808159 0.082500
0.892251 0.815789 0.082500
1.000000 0.818440 0.082500
0.000000 0.771020 0.082500
0.061958 0.772896 0.082500
0.125641 0.778468 0.082500
0.191841 0.787527 0.082500
0.261417 0.798848 0.082500
0.331775 0.812440 0.082500
0.407027 0.826340 0.082500
0.488629 0.840185 0.082500
0.574921 0.853545 0.082500
0.673858 0.865193 0.082500
0.778468 0.874359 0.082500
0.887517 0.879934 0.082500
1.000000 0.881975 0.082500
0.000000 0.883601 0.082500
0.059136 0.884586 0.082500
0.120066 0.887517 0.082500
0.184211 0.892251 0.082500
0.251742 0.898247 0.082500
0.321274 0.905477 0.082500
0.396003 0.912797 0.082500
0.478152 0.920134 0.082500
0.565771 0.927222 0.082500
0.666022 0.933338 0.082500
0.772896 0.938042 0.082500
0.884586 0.940864 0.082500
1.000000 0.941919 0.082500
0.000000 1.000000 0.082500
0.058081 1.000000 0.082500
0.118025 1.000000 0.082500
0.181560 1.000000 0.082500
0.248392 1.000000 0.082500
0.317766 1.000000 0.082500
0.392377 1.000000 0.082500
0.474530 1.000000 0.082500
0.562498 1.000000 0.082500
0.663281 1.000000 0.082500
0.771020 1.000000 0.082500
0.883601 1.000000 0.082500
1.000000 1.000000 0.082500
0.000000 0.000000 0.165000
0.116400 0.000000 0.165000
0.228980 0.000000 0.165000
0.336719 0.000000 0.165000
0.437502 0.000000 0.165000
0.525470 0.000000 0.165000
0.607623 0.000000 0.165000
0.682234 0.000000 0.165000
0.751608 0.000000 0.165000
0.818440 0.000000 0.165000
0.881975 0.000000 0.165000
0.941919 0.000000 0.165000
1.000000 0.000000 0.165000
0.000000 0.058081 0.165000
0.115414 0.059136 0.165000
0.227104 0.061958 0.165000
0.333978 0.066662 0.165000
0.434229 0.072778 0.165000
0.521848 0.079866 0.165000
0.603997 0.087203 0.165000
0.678726 0.094523 0.165000
0.748258 0.101753 0.165000
0.815789 0.107749 0.165000
0.879933 0.112483 0.165000
0.940864 0.115414 0.165000
1.000000 0.116400 0.165000
0.000000 0.118025 0.165000
0.112483 0.120067 0.165000
0.221532 0.125641 0.165000
0.326142 0.134807 0.165000
0.425079 0.146455 0.165000
0.511371 0.159815 0.165000
0.592973 0.173660 0.165000
0.668225 0.187560 0.165000
0.738583 0.201152 0.165000
0.808159 0.212473 0.165000
0.874359 0.221532 0.165000
0.938042 0.227104 0.165000
1.000000 0.228980 0.165000
0.000000 0.181560 0.165000
0.107749 0.184211 0.165000
0.212473 0.191841 0.165000
0.313459 0.204292 0.165000
0.409970 0.220452 0.165000
0.494615 0.239154 0.165000
0.575621 0.258817 0.165000
0.651542 0.278447 0.165000
0.722898 0.297389 0.165000
0.795708 0.313459 0.165000
0.865193 0.326142 0.165000
0.933338 0.333978 0.165000
1.000000 0.336719 0.165000
0.000000 0.248392 0.165000
0.101753 0.251742 0.165000
0.201152 0.261417 0.165000
0.297389 0.277102 0.165000
0.391119 0.297158 0.165000
0.473038 0.320225 0.165000
0.553229 0.344474 0.165000
0.629945 0.368679 0.165000
0.702842 0.391119 0.165000
0.779548 0.409970 0.165000
0.853545 0.425079 0.165000
0.927222 0.434229 0.165000
1.000000 0.437502 0.165000
0.000000 0.317766 0.165000
0.094523 0.321274 0.165000
0.187560 0.331775 0.165000
0.278447 0.348458 0.165000
0.368679 0.370055 0.165000
0.448183 0.394834 0.165000
0.527556 0.421465 0.165000
0.605166 0.448183 0.165000
0.679775 0.473038 0.165000
0.760846 0.494615 0.165000
0.840185 0.511371 0.165000
0.920134 0.521848 0.165000
1.000000 0.525470 0.165000
0.000000 0.392377 0.165000
0.087203 0.396003 0.165000
0.173660 0.407027 0.165000
0.258817 0.424379 0.165000
0.344474 0.446771 0.165000
0.421465 0.472444 0.165000
0.500000 0.500000 0.165000
0.578535 0.527556 0.165000
0.655526 0.553229 0.165000
0.741183 0.575621 0.165000
0.826340 0.592973 0.165000
0.912797 0.603997 0.165000
1.000000 0.607623 0.165000
0.000000 0.474530 0.165000
0.079866 0.478152 0.165000
0.159815 0.488629 0.165000
0.239154 0.505385 0.165000
0.320225 0.526962 0.165000
0.394834 0.551817 0.165000
0.472444 0.578535 0.165000
0.551817 0.605166 0.165000
0.631321 0.629945 0.165000
0.721553 0.651542 0.165000
0.812440 0.668225 0.165000
0.905477 0.678726 0.165000
1.000000 0.682234 0.165000
0.000000 0.562498 0.165000
0.072778 0.565771 0.165000
0.146455 0.574921 0.165000
0.220452 0.590030 0.165000
0.297158 0.608881 0.165000
0.370055 0.631321 0.165000
0.446771 0.655526 0.165000
0.526962 0.679775 0.165000
0.608881 0.702842 0.165000
0.702611 0.722898 0.165000
0.798848 0.738583 0.165000
0.898247 0.748258 0.165000
1.000000 0.751608 0.165000
0.000000 0.663281 0.165000
0.066662 0.666022 0.165000
0.134807 0.673858 0.165000
0.204292 0.686541 0.165000
0.277102 0.702611 0.165000
0.348458 0.721553 0.165000
0.424379 0.741183 0.165000
0.505385 0.760846 0.165000
0.590030 0.779548 0.165000
0.686541 0.795708 0.165000
0.787527 0.808159 0.165000
0.892251 0.815789 0.165000
1.000000 0.818440 0.165000
0.000000 0.771020 0.165000
0.061958 0.772896 0.165000
0.125641 0.778468 0.165000
0.191841 0.787527 0.165000
0.261417 0.798848 0.165000
0.331775 0.812440 0.165000
0.407027 0.826340 0.165000
0.488629 0.840185 0.165000
0.574921 0.853545 0.165000
0.673858 0.865193 0.165000
0.778468 0.874359 0.165000
0.887517 0.879934 0.165000
1.000000 0.881975 0.165000
0.000000 0.883601 0.165000
0.059136 0.884586 0.165000
0.120066 0.887517 0.165000
0.184211 0.892251 0.165000
0.251742 0.898247 0.165000
0.321274 0.905477 0.165000
0.396003 0.912797 0.165000
0.478152 0.920134 0.165000
0.565771 0.927222 0.165000
0.666022 0.933338 0.165000
0.772896 0.938042 0.165000
0.884586 0.940864 0.165000
1.000000 0.941919 0.165000
0.000000 1.000000 0.165000
0.058081 1.000000 0.165000
0.118025 1.000000 0.165000
0.181560 1.000000 0.165000
0.248392 1.000000 0.165000
0.317766 1.000000 0.165000
0.392377 1.000000 0.165000
0.474530 1.000000 0.165000
0.562498 1.000000 0.165000
0.663281 1.000000 0.165000
0.771020 1.000000 0.165000
0.883601 1.000000 0.165000
1.000000 1.000000 0.165000
0.000000 0.000000 0.247500
0.116400 0.000000 0.247500
0.228980 0.000000 0.247500
0.336719 0.000000 0.247500
0.437502 0.000000 0.247500
0.525470 0.000000 0.247500
0.607623 0.000000 0.247500
0.682234 0.000000 0.247500
0.751608 0.000000 0.247500
0.818440 0.000000 0.247500
0.881975 0.000000 0.247500
0.941919 0.000000 0.247500
1.000000 0.000000 0.247500
0.000000 0.058081 0.247500
0.115414 0.059136 0.247500
0.227104 0.061958 0.247500
0.333978 0.066662 0.247500
0.434229 0.072778 0.247500
0.521848 0.079866 0.247500
0.603997 0.087203 0.247500
0.678726 0.094523 0.247500
0.748258 0.101753 0.247500
0.815789 0.107749 0.247500
0.879933 0.112483 0.247500
0.940864 0.115414 0.247500
1.000000 0.116400 0.247500
0.000000 0.118025 0.247500
0.112483 0.120067 0.247500
0.221532 0.125641 0.247500
0.326142 0.134807 0.247500
0.425079 0.146455 0.247500
0.511371 0.159815 0.247500
0.592973 0.173660 0.247500
0.668225 0.187560 0.247500
0.738583 0.201152 0.247500
0.808159 0.212473 0.247500
0.874359 0.221532 0.247500
0.938042 0.227104 0.247500
1.000000 0.228980 0.247500
0.000000 0.181560 0.247500
0.107749 0.184211 0.247500
0.212473 0.191841 0.247500
0.313459 0.204292 0.247500
0.409970 0.220452 0.247500
0.494615 0.239154 0.247500
0.575621 0.258817 0.247500
0.651542 0.278447 0.247500
0.722898 0.297389 0.247500
0.795708 0.313459 0.247500
0.865193 0.326142 0.247500
0.933338 0.333978 0.247500
1.000000 0.336719 0.247500
0.000000 0.248392 0.247500
0.101753 0.251742 0.247500
0.201152 0.261417 0.247500
0.297389 0.277102 0.247500
0.391119 0.297158 0.247500
0.473038 0.320225 0.247500
0.553229 0.344474 0.247500
0.629945 0.368679 0.247500
0.702842 0.391119 0.247500
0.779548 0.409970 0.247500
0.853545 0.425079 0.247500
0.927222 0.434229 0.247500
1.000000 0.437502 0.247500
0.000000 0.317766 0.247500
0.094523 0.321274 0.247500
0.187560 0.331775 0.247500
0.278447 0.348458 0.247500
0.368679 0.370055 0.247500
0.448183 0.394834 0.247500
0.527556 0.421465 0.247500
0.605166 0.448183 0.247500
0.679775 0.473038 0.247500
0.760846 0.494615 0.247500
0.840185 0.511371 0.247500
0.920134 0.521848 0.247500
1.000000 0.525470 0.247500
0.000000 0.392377 0.247500
0.087203 0.396003 0.247500
0.173660 0.407027 0.247500
0.258817 0.424379 0.247500
0.344474 0.446771 0.247500
0.421465 0.472444 0.247500
0.500000 0.500000 0.247500
0.578535 0.527556 0.247500
0.655526 0.553229 0.247500
0.741183 0.575621 0.247500
0.826340 0.592973 0.247500
0.912797 0.603997 0.247500
1.000000 0.607623 0.247500
0.000000 0.474530 0.247500
0.079866 0.478152 0.247500
0.159815 0.488629 0.247500
0.239154 0.505385 0.247500
0.320225 0.526962 0.247500
0.394834 0.551817 0.247500
0.472444 0.578535 0.247500
0.551817 0.605166 0.247500
0.631321 0.629945 0.247500
0.721553 0.651542 0.247500
0.812440 0.668225 0.247500
0.905477 0.678726 0.247500
1.000000 0.682234 0.247500
0.000000 0.562498 0.247500
0.072778 0.565771 0.247500
0.146455 0.574921 0.247500
0.220452 0.590030 0.247500
0.297158 0.608881 0.247500
0.370055 0.631321 0.247500
0.446771 0.655526 0.247500
0.526962 0.679775 0.247500
0.608881 0.702842 0.247500
0.702611 0.722898 0.247500
0.798848 0.738583 0.247500
0.898247 0.748258 0.247500
1.000000 0.751608 0.247500
0.000000 0.663281 0.247500
0.066662 0.666022 0.247500
0.134807 0.673858 0.247500
0.204292 0.686541 0.247500
0.277102 0.702611 0.247500
0.348458 0.721553 0.247500
0.424379 0.741183 0.247500
0.505385 0.760846 0.247500
0.590030 0.779548 0.247500
0.686541 0.795708 0.247500
0.787527 0.808159 0.247500
0.892251 0.815789 0.247500
1.000000 0.818440 0.247500
0.000000 0.771020 0.247500
0.061958 0.772896 0.247500
0.125641 0.778468 0.247500
0.191841 0.787527 0.247500
0.261417 0.798848 0.247500
0.331775 0.812440 0.247500
0.407027 0.826340 0.247500
0.488629 0.840185 0.247500
0.574921 0.853545 0.247500
0.673858 0.865193 0.247500
0.778468 0.874359 0.247500
0.887517 0.879934 0.247500
1.000000 0.881975 0.247500
0.000000 0.883601 0.247500
0.059136 0.884586 0.247500
0.120066 0.887517 0.247500
0.184211 0.892251 0.247500
0.251742 0.898247 0.247500
0.321274 0.905477 0.247500
0.396003 0.912797 0.247500
0.478152 0.920134 0.247500
0.565771 0.927222 0.247500
0.666022 0.933338 0.247500
0.772896 0.938042 0.247500
0.884586 0.940864 0.247500
1.000000 0.941919 0.247500
0.000000 1.000000 0.247500
0.058081 1.000000 0.247500
0.118025 1.000000 0.247500
0.181560 1.000000 0.247500
0.248392 1.000000 0.247500
0.317766 1.000000 0.247500
0.392377 1.000000 0.247500
0.474530 1.000000 0.247500
0.562498 1.000000 0.247500
0.663281 1.000000 0.247500
0.771020 1.000000 0.247500
0.883601 1.000000 0.247500
1.000000 1.000000 0.247500
0.000000 0.000000 0.330000
0.116400 0.000000 0.330000
0.228980 0.000000 0.330000
0.336719 0.000000 0.330000
0.437502 0.000000 0.330000
0.525470 0.000000 0.330000
0.607623 0.000000 0.330000
0.682234 0.000000 0.330000
0.751608 0.000000 0.330000
0.818440 0.000000 0.330000
0.881975 0.000000 0.330000
0.941919 0.000000 0.330000
1.000000 0.000000 0.330000
0.000000 0.058081 0.330000
0.115414 0.059136 0.330000
0.227104 0.061958 0.330000
0.333978 0.066662 0.330000
0.434229 0.072778 0.330000
0.521848 0.079866 0.330000
0.603997 0.087203 0.330000
0.678726 0.094523 0.330000
0.748258 0.101753 0.330000
0.815789 0.107749 0.330000
0.879933 0.112483 0.330000
0.940864 0.115414 0.330000
1.000000 0.116400 0.330000
0.000000 0.118025 0.330000
0.112483 0.120067 0.330000
0.221532 0.125641 0.330000
0.326142 0.134807 0.330000
0.425079 0.146455 0.330000
0.511371 0.159815 0.330000
0.592973 0.173660 0.330000
0.668225 0.187560 0.330000
0.738583 0.201152 0.330000
0.808159 0.212473 0.330000
0.874359 0.221532 0.330000
0.938042 0.227104 0.330000
1.000000 0.228980 0.330000
0.000000 0.181560 0.330000
0.107749 0.184211 0.330000
0.212473 0.191841 0.330000
0.313459 0.204292 0.330000
0.409970 0.220452 0.330000
0.494615 0.239154 0.330000
0.575621 0.258817 0.330000
0.651542 0.278447 0.330000
0.722898 0.297389 0.330000
0.795708 0.313459 0.330000
0.865193 0.326142 0.330000
0.933338 0.333978 0.330000
1.000000 0.336719 0.330000
0.000000 0.248392 0.330000
0.101753 0.251742 0.330000
0.201152 0.261417 0.330000
0.297389 0.277102 0.330000
0.391119 0.297158 0.330000
0.473038 0.320225 0.330000
0.553229 0.344474 0.330000
0.629945 0.368679 0.330000
0.702842 0.391119 0.330000
0.779548 0.409970 0.330000
0.853545 0.425079 0.330000