# vtk DataFile Version 2.0
Mesh for Fierro
ASCII 
DATASET UNSTRUCTURED_GRID

POINTS 845 float
0.000000 0.000000 0.000000
0.083333 0.000000 0.000000
0.166667 0.000000 0.000000
0.250000 0.000000 0.000000
0.333333 0.000000 0.000000
0.416667 0.000000 0.000000
0.500000 0.000000 0.000000
0.583333 0.000000 0.000000
0.666667 0.000000 0.000000
0.750000 0.000000 0.000000
0.833333 0.000000 0.000000
0.916667 0.000000 0.000000
1.000000 0.000000 0.000000
0.000000 0.083333 0.000000
0.083333 0.083333 0.000000
0.166667 0.083333 0.000000
0.250000 0.083333 0.000000
0.333333 0.083333 0.000000
0.416667 0.083333 0.000000
0.500000 0.083333 0.000000
0.583333 0.083333 0.000000
0.666667 0.083333 0.000000
0.750000 0.083333 0.000000
0.833333 0.083333 0.000000
0.916667 0.083333 0.000000
1.000000 0.083333 0.000000
0.000000 0.166667 0.000000
0.083333 0.166667 0.000000
0.166667 0.166667 0.000000
0.250000 0.166667 0.000000
0.333333 0.166667 0.000000
0.416667 0.166667 0.000000
0.500000 0.166667 0.000000
0.583333 0.166667 0.000000
0.666667 0.166667 0.000000
0.750000 0.166667 0.000000
0.833333 0.166667 0.000000
0.916667 0.166667 0.000000
1.000000 0.166667 0.000000
0.000000 0.250000 0.000000
0.083333 0.250000 0.000000
0.166667 0.250000 0.000000
0.250000 0.250000 0.000000
0.333333 0.250000 0.000000
0.416667 0.250000 0.000000
0.500000 0.250000 0.000000
0.583333 0.250000 0.000000
0.666667 0.250000 0.000000
0.750000 0.250000 0.000000
0.833333 0.250000 0.000000
0.916667 0.250000 0.000000
1.000000 0.250000 0.000000
0.000000 0.333333 0.000000
0.083333 0.333333 0.000000
0.166667 0.333333 0.000000
0.250000 0.333333 0.000000
0.333333 0.333333 0.000000
0.416667 0.333333 0.000000
0.500000 0.333333 0.000000
0.583333 0.333333 0.000000
0.666667 0.333333 0.000000
0.750000 0.333333 0.000000
0.833333 0.333333 0.000000
0.916667 0.333333 0.000000
1.000000 0.333333 0.000000
0.000000 0.416667 0.000000
0.083333 0.416667 0.000000
0.166667 0.416667 0.000000
0.250000 0.416667 0.000000
0.333333 0.416667 0.000000
0.416667 0.416667 0.000000
0.500000 0.416667 0.000000
0.583333 0.416667 0.000000
0.666667 0.416667 0.000000
0.750000 0.416667 0.000000
0.833333 0.416667 0.000000
0.916667 0.416667 0.000000
1.000000 0.416667 0.000000
0.000000 0.500000 0.000000
0.083333 0.500000 0.000000
0.166667 0.500000 0.000000
0.250000 0.500000 0.000000
0.333333 0.500000 0.000000
0.416667 0.500000 0.000000
0.500000 0.500000 0.000000
0.583333 0.500000 0.000000
0.666667 0.500000 0.000000
0.750000 0.500000 0.000000
0.833333 0.500000 0.000000
0.916667 0.500000 0.000000
1.000000 0.500000 0.000000
0.000000 0.583333 0.000000
0.083333 0.583333 0.000000
0.166667 0.583333 0.000000
0.250000 0.583333 0.000000
0.333333 0.583333 0.000000
0.416667 0.583333 0.000000
0.500000 0.583333 0.000000
0.583333 0.583333 0.000000
0.666667 0.583333 0.000000
0.750000 0.583333 0.000000
0.833333 0.583333 0.000000
0.916667 0.583333 0.000000
1.000000 0.583333 0.000000
0.000000 0.666667 0.000000
0.083333 0.666667 0.000000
0.166667 0.666667 0.000000
0.250000 0.666667 0.000000
0.333333 0.666667 0.000000
0.416667 0.666667 0.000000
0.500000 0.666667 0.000000
0.583333 0.666667 0.000000
0.666667 0.666667 0.000000
0.750000 0.666667 0.000000
0.833333 0.666667 0.000000
0.916667 0.666667 0.000000
1.000000 0.666667 0.000000
0.000000 0.750000 0.000000
0.083333 0.750000 0.000000
0.166667 0.750000 0.000000
0.250000 0.750000 0.000000
0.333333 0.750000 0.000000
0.416667 0.750000 0.000000
0.500000 0.750000 0.000000
0.583333 0.750000 0.000000
0.666667 0.750000 0.000000
0.750000 0.750000 0.000000
0.833333 0.750000 0.000000
0.916667 0.750000 0.000000
1.000000 0.750000 0.000000
0.000000 0.833333 0.000000
0.083333 0.833333 0.000000
0.166667 0.833333 0.000000
0.250000 0.833333 0.000000
0.333333 0.833333 0.000000
0.416667 0.833333 0.000000
0.500000 0.833333 0.000000
0.583333 0.833333 0.000000
0.666667 0.833333 0.000000
0.750000 0.833333 0.000000
0.833333 0.833333 0.000000
0.916667 0.833333 0.000000
1.000000 0.833333 0.000000
0.000000 0.916667 0.000000
0.083333 0.916667 0.000000
0.166667 0.916667 0.000000
0.250000 0.916667 0.000000
0.333333 0.916667 0.000000
0.416667 0.916667 0.000000
0.500000 0.916667 0.000000
0.583333 0.916667 0.000000
0.666667 0.916667 0.000000
0.750000 0.916667 0.000000
0.833333 0.916667 0.000000
0.916667 0.916667 0.000000
1.000000 0.916667 0.000000
0.000000 1.000000 0.000000
0.083333 1.000000 0.000000
0.166667 1.000000 0.000000
0.250000 1.000000 0.000000
0.333333 1.000000 0.000000
0.416667 1.000000 0.000000
0.500000 1.000000 0.000000
0.583333 1.000000 0.000000
0.666667 1.000000 0.000000
0.750000 1.000000 0.000000
0.833333 1.000000 0.000000
0.916667 1.000000 0.000000
1.000000 1.000000 0.000000
0.000000 0.000000 0.082500
0.083333 0.000000 0.082500
0.166667 0.000000 0.082500
0.250000 0.000000 0.082500
0.333333 0.000000 0.082500
0.416667 0.000000 0.082500
0.500000 0.000000 0.082500
0.583333 0.000000 0.082500
0.666667 0.000000 0.082500
0.750000 0.000000 0.082500
0.833333 0.000000 0.082500
0.916667 0.000000 0.082500
1.000000 0.000000 0.082500
0.000000 0.083333 0.082500
0.083333 0.083333 0.082500
0.166667 0.083333 0.082500
0.250000 0.083333 0.082500
0.333333 0.083333 0.082500
0.416667 0.083333 0.082500
0.500000 0.083333 0.082500
0.583333 0.083333 0.082500
0.666667 0.083333 0.082500
0.750000 0.083333 0.082500
0.833333 0.083333 0.082500
0.916667 0.083333 0.082500
1.000000 0.083333 0.082500
0.000000 0.166667 0.082500
0.083333 0.166667 0.082500
0.166667 0.166667 0.082500
0.250000 0.166667 0.082500
0.333333 0.166667 0.082500
0.416667 0.166667 0.082500
0.500000 0.166667 0.082500
0.583333 0.166667 0.082500
0.666667 0.166667 0.082500
0.750000 0.166667 0.082500
0.833333 0.166667 0.082500
0.916667 0.166667 0.082500
1.000000 0.166667 0.082500
0.000000 0.250000 0.082500
0.083333 0.250000 0.082500
0.166667 0.250000 0.082500
0.250000 0.250000 0.082500
0.333333 0.250000 0.082500
0.416667 0.250000 0.082500
0.500000 0.250000 0.082500
0.583333 0.250000 0.082500
0.666667 0.250000 0.082500
0.750000 0.250000 0.082500
0.833333 0.250000 0.082500
0.916667 0.250000 0.082500
1.000000 0.250000 0.082500
0.000000 0.333333 0.082500
0.083333 0.333333 0.082500
0.166667 0.333333 0.082500
0.250000 0.333333 0.082500
0.333333 0.333333 0.082500
0.416667 0.333333 0.082500
0.500000 0.333333 0.082500
0.583333 0.333333 0.082500
0.666667 0.333333 0.082500
0.750000 0.333333 0.082500
0.833333 0.333333 0.082500
0.916667 0.333333 0.082500
1.000000 0.333333 0.082500
0.000000 0.416667 0.082500
0.083333 0.416667 0.082500
0.166667 0.416667 0.082500
0.250000 0.416667 0.082500
0.333333 0.416667 0.082500
0.416667 0.416667 0.082500
0.500000 0.416667 0.082500
0.583333 0.416667 0.082500
0.666667 0.416667 0.082500
0.750000 0.416667 0.082500
0.833333 0.416667 0.082500
0.916667 0.416667 0.082500
1.000000 0.416667 0.082500
0.000000 0.500000 0.082500
0.083333 0.500000 0.082500
0.166667 0.500000 0.082500
0.250000 0.500000 0.082500
0.333333 0.500000 0.082500
0.416667 0.500000 0.082500
0.500000 0.500000 0.082500
0.583333 0.500000 0.082500
0.666667 0.500000 0.082500
0.750000 0.500000 0.082500
0.833333 0.500000 0.082500
0.916667 0.500000 0.082500
1.000000 0.500000 0.082500
0.000000 0.583333 0.082500
0.083333 0.583333 0.082500
0.166667 0.583333 0.082500
0.250000 0.583333 0.082500
0.333333 0.583333 0.082500
0.416667 0.583333 0.082500
0.500000 0.583333 0.082500
0.583333 0.583333 0.082500
0.666667 0.583333 0.082500
0.750000 0.583333 0.082500
0.833333 0.583333 0.082500
0.916667 0.583333 0.082500
1.000000 0.583333 0.082500
0.000000 0.666667 0.082500
0.083333 0.666667 0.082500
0.166667 0.666667 0.082500
0.250000 0.666667 0.082500
0.333333 0.666667 0.082500
0.416667 0.666667 0.082500
0.500000 0.666667 0.082500
0.583333 0.666667 0.082500
0.666667 0.666667 0.082500
0.750000 0.666667 0.082500
0.833333 0.666667 0.082500
0.916667 0.666667 0.082500
1.000000 0.666667 0.082500
0.000000 0.750000 0.082500
0.083333 0.750000 0.082500
0.166667 0.750000 0.082500
0.250000 0.750000 0.082500
0.333333 0.750000 0.082500
0.416667 0.750000 0.082500
0.500000 0.750000 0.082500
0.583333 0.750000 0.082500
0.666667 0.750000 0.082500
0.750000 0.750000 0.082500
0.833333 0.750000 0.082500
0.916667 0.750000 0.082500
1.000000 0.750000 0.082500
0.000000 0.833333 0.082500
0.083333 0.833333 0.082500
0.166667 0.833333 0.082500
0.250000 0.833333 0.082500
0.333333 0.833333 0.082500
0.416667 0.833333 0.082500
0.500000 0.833333 0.082500
0.583333 0.833333 0.082500
0.666667 0.833333 0.082500
0.750000 0.833333 0.082500
0.833333 0.833333 0.082500
0.916667 0.833333 0.082500
1.000000 0.833333 0.082500
0.000000 0.916667 0.082500
0.083333 0.916667 0.082500
0.166667 0.916667 0.082500
0.250000 0.916667 0.082500
0.333333 0.916667 0.082500
0.416667 0.916667 0.082500
0.500000 0.916667 0.082500
0.583333 0.916667 0.082500
0.666667 0.916667 0.082500
0.750000 0.916667 0.082500
0.833333 0.916667 0.082500
0.916667 0.916667 0.082500
1.000000 0.916667 0.082500
0.000000 1.000000 0.082500
0.083333 1.000000 0.082500
0.166667 1.000000 0.082500
0.250000 1.000000 0.082500
0.333333 1.000000 0.082500
0.416667 1.000000 0.082500
0.500000 1.000000 0.082500
0.583333 1.000000 0.082500
0.666667 1.000000 0.082500
0.750000 1.000000 0.082500
0.833333 1.000000 0.082500
0.916667 1.000000 0.082500
1.000000 1.000000 0.082500
0.000000 0.000000 0.165000
0.083333 0.000000 0.165000
0.166667 0.000000 0.165000
0.250000 0.000000 0.165000
0.333333 0.000000 0.165000
0.416667 0.000000 0.165000
0.500000 0.000000 0.165000
0.583333 0.000000 0.165000
0.666667 0.000000 0.165000
0.750000 0.000000 0.165000
0.833333 0.000000 0.165000
0.916667 0.000000 0.165000
1.000000 0.000000 0.165000
0.000000 0.083333 0.165000
0.083333 0.083333 0.165000
0.166667 0.083333 0.165000
0.250000 0.083333 0.165000
0.333333 0.083333 0.165000
0.416667 0.083333 0.165000
0.500000 0.083333 0.165000
0.583333 0.083333 0.165000
0.666667 0.083333 0.165000
0.750000 0.083333 0.165000
0.833333 0.083333 0.165000
0.916667 0.083333 0.165000
1.000000 0.083333 0.165000
0.000000 0.166667 0.165000
0.083333 0.166667 0.165000
[...]
POINT_DATA 845 
VECTORS pos float 
0.000000 0.000000 0.000000
0.083333 0.000000 0.000000
0.166667 0.000000 0.000000
0.250000 0.000000 0.000000
0.333333 0.000000 0.000000
0.416667 0.000000 0.000000
0.500000 0.000000 0.000000
0.583333 0.000000 0.000000
0.666667 0.000000 0.000000
0.750000 0.000000 0.000000
0.833333 0.000000 0.000000
0.916667 0.000000 0.000000
1.000000 0.000000 0.000000
0.000000 0.083333 0.000000
0.083333 0.083333 0.000000
0.166667 0.083333 0.000000
0.250000 0.083333 0.000000
0.333333 0.083333 0.000000
0.416667 0.083333 0.000000
0.500000 0.083333 0.000000
0.583333 0.083333 0.000000
0.666667 0.083333 0.000000
0.750000 0.083333 0.000000
0.833333 0.083333 0.000000
0.916667 0.083333 0.000000
1.000000 0.083333 0.000000
0.000000 0.166667 0.000000
0.083333 0.166667 0.000000
0.166667 0.166667 0.000000
0.250000 0.166667 0.000000
0.333333 0.166667 0.000000
0.416667 0.166667 0.000000
0.500000 0.166667 0.000000
0.583333 0.166667 0.000000
0.666667 0.166667 0.000000
0.750000 0.166667 0.000000
0.833333 0.166667 0.000000
0.916667 0.166667 0.000000
1.000000 0.166667 0.000000
0.000000 0.250000 0.000000
0.083333 0.250000 0.000000
0.166667 0.250000 0.000000
0.250000 0.250000 0.000000
0.333333 0.250000 0.000000
0.416667 0.250000 0.000000
0.500000 0.250000 0.000000
0.583333 0.250000 0.000000
0.666667 0.250000 0.000000
0.750000 0.250000 0.000000
0.833333 0.250000 0.000000
0.916667 0.250000 0.000000
1.000000 0.250000 0.000000
0.000000 0.333333 0.000000
0.083333 0.333333 0.000000
0.166667 0.333333 0.000000
0.250000 0.333333 0.000000
0.333333 0.333333 0.000000
0.416667 0.333333 0.000000
0.500000 0.333333 0.000000
0.583333 0.333333 0.000000
0.666667 0.333333 0.000000
0.750000 0.333333 0.000000
0.833333 0.333333 0.000000
0.916667 0.333333 0.000000
1.000000 0.333333 0.000000
0.000000 0.416667 0.000000
0.083333 0.416667 0.000000
0.166667 0.416667 0.000000
0.250000 0.416667 0.000000
0.333333 0.416667 0.000000
0.416667 0.416667 0.000000
0.500000 0.416667 0.000000
0.583333 0.416667 0.000000
0.666667 0.416667 0.000000
0.750000 0.416667 0.000000
0.833333 0.416667 0.000000
0.916667 0.416667 0.000000
1.000000 0.416667 0.000000
0.000000 0.500000 0.000000
0.083333 0.500000 0.000000
0.166667 0.500000 0.000000
0.250000 0.500000 0.000000
0.333333 0.500000 0.000000
0.416667 0.500000 0.000000
0.500000 0.500000 0.000000
0.583333 0.500000 0.000000
0.666667 0.500000 0.000000
0.750000 0.500000 0.000000
0.833333 0.500000 0.000000
0.916667 0.500000 0.000000
1.000000 0.500000 0.000000
0.000000 0.583333 0.000000
0.083333 0.583333 0.000000
0.166667 0.583333 0.000000
0.250000 0.583333 0.000000
0.333333 0.583333 0.000000
0.416667 0.583333 0.000000
0.500000 0.583333 0.000000
0.583333 0.583333 0.000000
0.666667 0.583333 0.000000
0.750000 0.583333 0.000000
0.833333 0.583333 0.000000
0.916667 0.583333 0.000000
1.000000 0.583333 0.000000
0.000000 0.666667 0.000000
0.083333 0.666667 0.000000
0.166667 0.666667 0.000000
0.250000 0.666667 0.000000
0.333333 0.666667 0.000000
0.416667 0.666667 0.000000
0.500000 0.666667 0.000000
0.583333 0.666667 0.000000
0.666667 0.666667 0.000000
0.750000 0.666667 0.000000
0.833333 0.666667 0.000000
0.916667 0.666667 0.000000
1.000000 0.666667 0.000000
0.000000 0.750000 0.000000
0.083333 0.750000 0.000000
0.166667 0.750000 0.000000
0.250000 0.750000 0.000000
0.333333 0.750000 0.000000
0.416667 0.750000 0.000000
0.500000 0.750000 0.000000
0.583333 0.750000 0.000000
0.666667 0.750000 0.000000
0.750000 0.750000 0.000000
0.833333 0.750000 0.000000
0.916667 0.750000 0.000000
1.000000 0.750000 0.000000
0.000000 0.833333 0.000000
0.083333 0.833333 0.000000
0.166667 0.833333 0.000000
0.250000 0.833333 0.000000
0.333333 0.833333 0.000000
0.416667 0.833333 0.000000
0.500000 0.833333 0.000000
0.583333 0.833333 0.000000
0.666667 0.833333 0.000000
0.750000 0.833333 0.000000
0.833333 0.833333 0.000000
0.916667 0.833333 0.000000
1.000000 0.833333 0.000000
0.000000 0.916667 0.000000
0.083333 0.916667 0.000000
0.166667 0.916667 0.000000
0.250000 0.916667 0.000000
0.333333 0.916667 0.000000
0.416667 0.916667 0.000000
0.500000 0.916667 0.000000
0.583333 0.916667 0.000000
0.666667 0.916667 0.000000
0.750000 0.916667 0.000000
0.833333 0.916667 0.000000
0.916667 0.916667 0.000000
1.000000 0.916667 0.000000
0.000000 1.000000 0.000000
0.083333 1.000000 0.000000
0.166667 1.000000 0.000000
0.250000 1.000000 0.000000
0.333333 1.000000 0.000000
0.416667 1.000000 0.000000
0.500000 1.000000 0.000000
0.583333 1.000000 0.000000
0.666667 1.000000 0.000000
0.750000 1.000000 0.000000
0.833333 1.000000 0.000000
0.916667 1.000000 0.000000
1.000000 1.000000 0.000000
0.000000 0.000000 0.082500
0.083333 0.000000 0.082500
0.166667 0.000000 0.082500
0.250000 0.000000 0.082500
0.333333 0.000000 0.082500
0.416667 0.000000 0.082500
0.500000 0.000000 0.082500
0.583333 0.000000 0.082500
0.666667 0.000000 0.082500
0.750000 0.000000 0.082500
0.833333 0.000000 0.082500
0.916667 0.000000 0.082500
1.000000 0.000000 0.082500
0.000000 0.083333 0.082500
0.083333 0.083333 0.082500
0.166667 0.083333 0.082500
0.250000 0.083333 0.082500
0.333333 0.083333 0.082500
0.416667 0.083333 0.082500
0.500000 0.083333 0.082500
0.583333 0.083333 0.082500
0.666667 0.083333 0.082500
0.750000 0.083333 0.082500
0.833333 0.083333 0.082500
0.916667 0.083333 0.082500
1.000000 0.083333 0.082500
0.000000 0.166667 0.082500
0.083333 0.166667 0.082500
0.166667 0.166667 0.082500
0.250000 0.166667 0.082500
0.333333 0.166667 0.082500
0.416667 0.166667 0.082500
0.500000 0.166667 0.082500
0.583333 0.166667 0.082500
0.666667 0.166667 0.082500
0.750000 0.166667 0.082500
0.833333 0.166667 0.082500
0.916667 0.166667 0.082500
1.000000 0.166667 0.082500
0.000000 0.250000 0.082500
0.083333 0.250000 0.082500
0.166667 0.250000 0.082500
0.250000 0.250000 0.082500
0.333333 0.250000 0.082500
0.416667 0.250000 0.082500
0.500000 0.250000 0.082500
0.583333 0.250000 0.082500
0.666667 0.250000 0.082500
0.750000 0.250000 0.082500
0.833333 0.250000 0.082500
0.916667 0.250000 0.082500
1.000000 0.250000 0.082500
0.000000 0.333333 0.082500
0.083333 0.333333 0.082500
0.166667 0.333333 0.082500
0.250000 0.333333 0.082500
0.333333 0.333333 0.082500
0.416667 0.333333 0.082500
0.500000 0.333333 0.082500
0.583333 0.333333 0.082500
0.666667 0.333333 0.082500
0.750000 0.333333 0.082500
0.833333 0.333333 0.082500
0.916667 0.333333 0.082500
1.000000 0.333333 0.082500
0.000000 0.416667 0.082500
0.083333 0.416667 0.082500
0.166667 0.416667 0.082500
0.250000 0.416667 0.082500
0.333333 0.416667 0.082500
0.416667 0.416667 0.082500
0.500000 0.416667 0.082500
0.583333 0.416667 0.082500
0.666667 0.416667 0.082500
0.750000 0.416667 0.082500
0.833333 0.416667 0.082500
0.916667 0.416667 0.082500
1.000000 0.416667 0.082500
0.000000 0.500000 0.082500
0.083333 0.500000 0.082500
0.166667 0.500000 0.082500
0.250000 0.500000 0.082500
0.333333 0.500000 0.082500
0.416667 0.500000 0.082500
0.500000 0.500000 0.082500
0.583333 0.500000 0.082500
0.666667 0.500000 0.082500
0.750000 0.500000 0.082500
0.833333 0.500000 0.082500
0.916667 0.500000 0.082500
1.000000 0.500000 0.082500
0.000000 0.583333 0.082500
0.083333 0.583333 0.082500
0.166667 0.583333 0.082500
0.250000 0.583333 0.082500
0.333333 0.583333 0.082500
0.416667 0.583333 0.082500
0.500000 0.583333 0.082500
0.583333 0.583333 0.082500
0.666667 0.583333 0.082500
0.750000 0.583333 0.082500
0.833333 0.583333 0.082500
0.916667 0.583333 0.082500
1.000000 0.583333 0.082500
0.000000 0.666667 0.082500
0.083333 0.666667 0.082500
0.166667 0.666667 0.082500
0.250000 0.666667 0.082500
0.333333 0.666667 0.082500
0.416667 0.666667 0.082500
0.500000 0.666667 0.082500
0.583333 0.666667 0.082500
0.666667 0.666667 0.082500
0.750000 0.666667 0.082500
0.833333 0.666667 0.082500
0.916667 0.666667 0.082500
1.000000 0.666667 0.082500
0.000000 0.750000 0.082500
0.083333 0.750000 0.082500
0.166667 0.750000 0.082500
0.250000 0.750000 0.082500
0.333333 0.750000 0.082500
0.416667 0.750000 0.082500
0.500000 0.750000 0.082500
0.583333 0.750000 0.082500
0.666667 0.750000 0.082500
0.750000 0.750000 0.082500
0.833333 0.750000 0.082500
0.916667 0.750000 0.082500
1.000000 0.750000 0.082500
0.000000 0.833333 0.082500
0.083333 0.833333 0.082500
0.166667 0.833333 0.082500
0.250000 0.833333 0.082500
0.333333 0.833333 0.082500
0.416667 0.833333 0.082500
0.500000 0.833333 0.082500
0.583333 0.833333 0.082500
0.666667 0.833333 0.082500
0.750000 0.833333 0.082500
0.833333 0.833333 0.082500
0.916667 0.833333 0.082500
1.000000 0.833333 0.082500
0.000000 0.916667 0.082500
0.083333 0.916667 0.082500
0.166667 0.916667 0.082500
0.250000 0.916667 0.082500
0.333333 0.916667 0.082500
0.416667 0.916667 0.082500
0.500000 0.916667 0.082500
0.583333 0.916667 0.082500
0.666667 0.916667 0.082500
0.750000 0.916667 0.082500
0.833333 0.916667 0.082500
0.916667 0.916667 0.082500
1.000000 0.916667 0.082500
0.000000 1.000000 0.082500
0.083333 1.000000 0.082500
0.166667 1.000000 0.082500
0.250000 1.000000 0.082500
0.333333 1.000000 0.082500
0.416667 1.000000 0.082500
0.500000 1.000000 0.082500
0.583333 1.000000 0.082500
0.666667 1.000000 0.082500
0.750000 1.000000 0.082500
0.833333 1.000000 0.082500
0.916667 1.000000 0.082500
1.000000 1.000000 0.082500
0.000000 0.000000 0.165000
0.083333 0.000000 0.165000
0.166667 0.000000 0.165000
0.250000 0.000000 0.165000
0.333333 0.000000 0.165000
0.416667 0.000000 0.165000
0.500000 0.000000 0.165000
0.583333 0.000000 0.165000
0.666667 0.000000 0.165000
0.750000 0.000000 0.165000
0.833333 0.000000 0.165000
0.916667 0.000000 0.165000
1.000000 0.000000 0.165000
0.000000 0.083333 0.165000
0.083333 0.083333 0.165000
0.166667 0.083333 0.165000
0.250000 0.083333 0.165000
0.333333 0.083333 0.165000
0.416667 0.083333 0.165000
0.500000 0.083333 0.165000
0.583333 0.083333 0.165000
0.666667 0.083333 0.165000
0.750000 0.083333 0.165000
0.833333 0.083333 0.165000
0.916667 0.083333 0.165000
1.000000 0.083333 0.165000
0.000000 0.166667 0.165000
0.083333 0.166667 0.165000
0.166667 0.166667 0.165000
0.250000 0.166667 0.165000
0.333333 0.166667 0.165000
0.416667 0.166667 0.165000
0.500000 0.166667 0.165000
0.583333 0.166667 0.165000
0.666667 0.166667 0.165000
0.750000 0.166667 0.165000
0.833333 0.166667 0.165000
0.916667 0.166667 0.165000
1.000000 0.166667 0.165000
0.000000 0.250000 0.165000
0.083333 0.250000 0.165000
0.166667 0.250000 0.165000
0.250000 0.250000 0.165000
0.333333 0.250000 0.165000
0.416667 0.250000 0.165000
0.500000 0.250000 0.165000
0.583333 0.250000 0.165000
0.666667 0.250000 0.165000
0.750000 0.250000 0.165000
0.833333 0.250000 0.165000
0.916667 0.250000 0.165000
1.000000 0.250000 0.165000
0.000000 0.333333 0.165000
0.083333 0.333333 0.165000
0.166667 0.333333 0.165000
0.250000 0.333333 0.165000
0.333333 0.333333 0.165000
0.416667 0.333333 0.165000
0.500000 0.333333 0.165000
0.583333 0.333333 0.165000
0.666667 0.333333 0.165000
0.750000 0.333333 0.165000
0.833333 0.333333 0.165000
0.916667 0.333333 0.165000
1.000000 0.333333 0.165000
0.000000 0.416667 0.165000
0.083333 0.416667 0.165000
0.166667 0.416667 0.165000
0.250000 0.416667 0.165000
0.333333 0.416667 0.165000
0.416667 0.416667 0.165000
0.500000 0.416667 0.165000
0.583333 0.416667 0.165000
0.666667 0.416667 0.165000
0.750000 0.416667 0.165000
0.833333 0.416667 0.165000
0.916667 0.416667 0.165000
1.000000 0.416667 0.165000
0.000000 0.500000 0.165000
0.083333 0.500000 0.165000
0.166667 0.500000 0.165000
0.250000 0.500000 0.165000
0.333333 0.500000 0.165000
0.416667 0.500000 0.165000
0.500000 0.500000 0.165000
0.583333 0.500000 0.165000
0.666667 0.500000 0.165000
0.750000 0.500000 0.165000
0.833333 0.500000 0.165000
0.916667 0.500000 0.165000
1.000000 0.500000 0.165000
0.000000 0.583333 0.165000
0.083333 0.583333 0.165000
0.166667 0.583333 0.165000
0.250000 0.583333 0.165000
0.333333 0.583333 0.165000
0.416667 0.583333 0.165000
0.500000 0.583333 0.165000
0.583333 0.583333 0.165000
0.666667 0.583333 0.165000
0.750000 0.583333 0.165000
0.833333 0.583333 0.165000
0.916667 0.583333 0.165000
1.000000 0.583333 0.165000
0.000000 0.666667 0.165000
0.083333 0.666667 0.165000
0.166667 0.666667 0.165000
0.250000 0.666667 0.165000
0.333333 0.666667 0.165000
0.416667 0.666667 0.165000
0.500000 0.666667 0.165000
0.583333 0.666667 0.165000
0.666667 0.666667 0.165000
0.750000 0.666667 0.165000
0.833333 0.666667 0.165000
0.916667 0.666667 0.165000
1.000000 0.666667 0.165000
0.000000 0.750000 0.165000
0.083333 0.750000 0.165000
0.166667 0.750000 0.165000
0.250000 0.750000 0.165000
0.333333 0.750000 0.165000
0.416667 0.750000 0.165000
0.500000 0.750000 0.165000
0.583333 0.750000 0.165000
0.666667 0.750000 0.165000
0.750000 0.750000 0.165000
0.833333 0.750000 0.165000
0.916667 0.750000 0.165000
1.000000 0.750000 0.165000
0.000000 0.833333 0.165000
0.083333 0.833333 0.165000
0.166667 0.833333 0.165000
0.250000 0.833333 0.165000
0.333333 0.833333 0.165000
0.416667 0.833333 0.165000
0.500000 0.833333 0.165000
0.583333 0.833333 0.165000
0.666667 0.833333 0.165000
0.750000 0.833333 0.165000
0.833333 0.833333 0.165000
0.916667 0.833333 0.165000
1.000000 0.833333 0.165000
0.000000 0.916667 0.165000
0.083333 0.916667 0.165000
0.166667 0.916667 0.165000
0.250000 0.916667 0.165000
0.333333 0.916667 0.165000
0.416667 0.916667 0.165000
0.500000 0.916667 0.165000
0.583333 0.916667 0.165000
0.666667 0.916667 0.165000
0.750000 0.916667 0.165000
0.833333 0.916667 0.165000
0.916667 0.916667 0.165000
1.000000 0.916667 0.165000
0.000000 1.000000 0.165000
0.083333 1.000000 0.165000
0.166667 1.000000 0.165000
0.250000 1.000000 0.165000
0.333333 1.000000 0.165000
0.416667 1.000000 0.165000
0.500000 1.000000 0.165000
0.583333 1.000000 0.165000
0.666667 1.000000 0.165000
0.750000 1.000000 0.165000
0.833333 1.000000 0.165000
0.916667 1.000000 0.165000
1.000000 1.000000 0.165000
0.000000 0.000000 0.247500
0.083333 0.000000 0.247500
0.166667 0.000000 0.247500
0.250000 0.000000 0.247500
0.333333 0.000000 0.247500
0.416667 0.000000 0.247500
0.500000 0.000000 0.247500
0.583333 0.000000 0.247500
0.666667 0.000000 0.247500
0.750000 0.000000 0.247500
0.833333 0.000000 0.247500
0.916667 0.000000 0.247500
1.000000 0.000000 0.247500
0.000000 0.083333 0.247500
0.083333 0.083333 0.247500
0.166667 0.083333 0.247500
0.250000 0.083333 0.247500
0.333333 0.083333 0.247500
0.416667 0.083333 0.247500
0.500000 0.083333 0.247500
0.583333 0.083333 0.247500
0.666667 0.083333 0.247500
0.750000 0.083333 0.247500
0.833333 0.083333 0.247500
0.916667 0.083333 0.247500
1.000000 0.083333 0.247500
0.000000 0.166667 0.247500
0.083333 0.166667 0.247500
0.166667 0.166667 0.247500
0.250000 0.166667 0.247500
0.333333 0.166667 0.247500
0.416667 0.166667 0.247500
0.500000 0.166667 0.247500
0.583333 0.166667 0.247500
0.666667 0.166667 0.247500
0.750000 0.166667 0.247500
0.833333 0.166667 0.247500
0.916667 0.166667 0.247500
1.000000 0.166667 0.247500
0.000000 0.250000 0.247500
0.083333 0.250000 0.247500
0.166667 0.250000 0.247500
0.250000 0.250000 0.247500
0.333333 0.250000 0.247500
0.416667 0.250000 0.247500
0.500000 0.250000 0.247500
0.583333 0.250000 0.247500
0.666667 0.250000 0.247500
0.750000 0.250000 0.247500
0.833333 0.250000 0.247500
0.916667 0.250000 0.247500
1.000000 0.250000 0.247500
0.000000 0.333333 0.247500
0.083333 0.333333 0.247500
0.166667 0.333333 0.247500
0.250000 0.333333 0.247500
0.333333 0.333333 0.247500
0.416667 0.333333 0.247500
0.500000 0.333333 0.247500
0.583333 0.333333 0.247500
0.666667 0.333333 0.247500
0.750000 0.333333 0.247500
0.833333 0.333333 0.247500
0.916667 0.333333 0.247500
1.000000 0.333333 0.247500
0.000000 0.416667 0.247500
0.083333 0.416667 0.247500
0.166667 0.416667 0.247500
0.250000 0.416667 0.247500
0.333333 0.416667 0.247500
0.416667 0.416667 0.247500
0.500000 0.416667 0.247500
0.583333 0.416667 0.247500
0.666667 0.416667 0.247500
0.750000 0.416667 0.247500
0.833333 0.416667 0.247500
0.916667 0.416667 0.247500
1.000000 0.416667 0.247500
0.000000 0.500000 0.247500
0.083333 0.500000 0.247500
0.166667 0.500000 0.247500
0.250000 0.500000 0.247500
0.333333 0.500000 0.247500
0.416667 0.500000 0.247500
0.500000 0.500000 0.247500
0.583333 0.500000 0.247500
0.666667 0.500000 0.247500
0.750000 0.500000 0.247500
0.833333 0.500000 0.247500
0.916667 0.500000 0.247500
1.000000 0.500000 0.247500
0.000000 0.583333 0.247500
0.083333 0.583333 0.247500
0.166667 0.583333 0.247500
0.250000 0.583333 0.247500
0.333333 0.583333 0.247500
0.416667 0.583333 0.247500
0.500000 0.583333 0.247500
0.583333 0.583333 0.247500
0.666667 0.583333 0.247500
0.750000 0.583333 0.247500
0.833333 0.583333 0.247500
0.916667 0.583333 0.247500
1.000000 0.583333 0.247500
0.000000 0.666667 0.247500
0.083333 0.666667 0.247500
0.166667 0.666667 0.247500
0.250000 0.666667 0.247500
0.333333 0.666667 0.247500
0.416667 0.666667 0.247500
0.500000 0.666667 0.247500
0.583333 0.666667 0.247500
0.666667 0.666667 0.247500
0.750000 0.666667 0.247500
0.833333 0.666667 0.247500
0.916667 0.666667 0.247500
1.000000 0.666667 0.247500
0.000000 0.750000 0.247500
0.083333 0.750000 0.247500
0.166667 0.750000 0.247500
0.250000 0.750000 0.247500
0.333333 0.750000 0.247500
0.416667 0.750000 0.247500
0.500000 0.750000 0.247500
0.583333 0.750000 0.247500
0.666667 0.750000 0.247500
0.750000 0.750000 0.247500
0.833333 0.750000 0.247500
0.916667 0.750000 0.247500
1.000000 0.750000 0.247500
0.000000 0.833333 0.247500
0.083333 0.833333 0.247500
0.166667 0.833333 0.247500
0.250000 0.833333 0.247500
0.333333 0.833333 0.247500
0.416667 0.833333 0.247500
0.500000 0.833333 0.247500
0.583333 0.833333 0.247500
0.666667 0.833333 0.247500
0.750000 0.833333 0.247500
0.833333 0.833333 0.247500
0.916667 0.833333 0.247500
1.000000 0.833333 0.247500
0.000000 0.916667 0.247500
0.083333 0.916667 0.247500
0.166667 0.916667 0.247500
0.250000 0.916667 0.247500
0.333333 0.916667 0.247500
0.416667 0.916667 0.247500
0.500000 0.916667 0.247500
0.583333 0.916667 0.247500
0.666667 0.916667 0.247500
0.750000 0.916667 0.247500
0.833333 0.916667 0.247500
0.916667 0.916667 0.247500
1.000000 0.916667 0.247500
0.000000 1.000000 0.247500
0.083333 1.000000 0.247500
0.166667 1.000000 0.247500
0.250000 1.000000 0.247500
0.333333 1.000000 0.247500
0.416667 1.000000 0.247500
0.500000 1.000000 0.247500
0.583333 1.000000 0.247500
0.666667 1.000000 0.247500
0.750000 1.000000 0.247500
0.833333 1.000000 0.247500
0.916667 1.000000 0.247500
1.000000 1.000000 0.247500
0.000000 0.000000 0.330000
0.083333 0.000000 0.330000
0.166667 0.000000 0.330000
0.250000 0.000000 0.330000
0.333333 0.000000 0.330000
0.416667 0.000000 0.330000
0.500000 0.000000 0.330000
0.583333 0.000000 0.330000
0.666667 0.000000 0.330000
0.750000 0.000000 0.330000
0.833333 0.000000 0.330000
0.916667 0.000000 0.330000
1.000000 0.000000 0.330000
0.000000 0.083333 0.330000
0.083333 0.083333 0.330000
0.166667 0.083333 0.330000
0.250000 0.083333 0.330000
0.333333 0.083333 0.330000
0.416667 0.083333 0.330000
0.500000 0.083333 0.330000
0.583333 0.083333 0.330000
0.666667 0.083333 0.330000
0.750000 0.083333 0.330000
0.833333 0.083333 0.330000
0.916667 0.083333 0.330000
1.000000 0.083333 0.330000
0.000000 0.166667 0.330000
0.083333 0.166667 0.330000
0.166667 0.166667 0.330000
0.250000 0.166667 0.330000
0.333333 0.166667 0.330000
0.416667 0.166667 0.330000
0.500000 0.166667 0.330000
0.583333 0.166667 0.330000
0.666667 0.166667 0.330000
0.750000 0.166667 0.330000
0.833333 0.166667 0.330000
0.916667 0.166667 0.330000
1.000000 0.166667 0.330000
0.000000 0.250000 0.330000
0.083333 0.250000 0.330000
0.166667 0.250000 0.330000
0.250000 0.250000 0.330000
0.333333 0.250000 0.330000
0.416667 0.250000 0.330000
0.500000 0.250000 0.330000
0.583333 0.250000 0.330000
0.666667 0.250000 0.330000
0.750000 0.250000 0.330000
0.833333 0.250000 0.330000
0.916667 0.250000 0.330000
1.000000 0.250000 0.330000
0.000000 0.333333 0.330000
0.083333 0.333333 0.330000
0.166667 0.333333 0.330000
0.250000 0.333333 0.330000
0.333333 0.333333 0.330000
0.416667 0.333333 0.330000
0.500000 0.333333 0.330000
0.583333 0.333333 0.330000
0.666667 0.333333 0.330000
0.750000 0.333333 0.330000
0.833333 0.333333 0.330000