# vtk DataFile Version 2.0
Mesh for Fierro
ASCII 
DATASET UNSTRUCTURED_GRID

POINTS 845 float
0.000000 0.000000 0.000000
0.326885 0.000000 0.000000
0.543141 0.000000 0.000000
0.669454 0.000000 0.000000
0.752787 0.000000 0.000000
0.811159 0.000000 0.000000
0.856428 0.000000 0.000000
0.888736 0.000000 0.000000
0.915943 0.000000 0.000000
0.939941 0.000000 0.000000
0.960160 0.000000 0.000000
0.980495 0.000000 0.000000
1.000000 0.000000 0.000000
0.000000 0.019506 0.000000
0.322207 0.025014 0.000000
0.536020 0.041535 0.000000
0.660047 0.067021 0.000000
0.740281 0.101324 0.000000
0.796990 0.136292 0.000000
0.838861 0.175495 0.000000
0.872034 0.215461 0.000000
0.899294 0.254239 0.000000
0.925401 0.284795 0.000000
0.949980 0.306961 0.000000
0.974986 0.322207 0.000000
1.000000 0.326885 0.000000
0.000000 0.039840 0.000000
0.306961 0.050020 0.000000
0.515078 0.080524 0.000000
0.635644 0.127622 0.000000
0.710911 0.187580 0.000000
0.764491 0.248848 0.000000
0.801087 0.315544 0.000000
0.831014 0.378033 0.000000
0.856536 0.436854 0.000000
0.886321 0.481724 0.000000
0.919476 0.515078 0.000000
0.958465 0.536020 0.000000
1.000000 0.543141 0.000000
0.000000 0.060059 0.000000
0.284795 0.074599 0.000000
0.481724 0.113679 0.000000
0.595614 0.176767 0.000000
0.664664 0.252347 0.000000
0.708827 0.328176 0.000000
0.734883 0.407158 0.000000
0.760363 0.477270 0.000000
0.784193 0.543184 0.000000
0.823233 0.595614 0.000000
0.872378 0.635644 0.000000
0.932979 0.660048 0.000000
1.000000 0.669454 0.000000
0.000000 0.084057 0.000000
0.254239 0.100706 0.000000
0.436854 0.143464 0.000000
0.543184 0.215807 0.000000
0.607591 0.301257 0.000000
0.641451 0.385100 0.000000
0.656917 0.467961 0.000000
0.677290 0.541070 0.000000
0.698743 0.607591 0.000000
0.747653 0.664664 0.000000
0.812420 0.710911 0.000000
0.898676 0.740281 0.000000
1.000000 0.752787 0.000000
0.000000 0.111264 0.000000
0.215461 0.127966 0.000000
0.378033 0.168986 0.000000
0.477270 0.239637 0.000000
0.541070 0.322710 0.000000
0.567983 0.405650 0.000000
0.579742 0.488592 0.000000
0.594350 0.567983 0.000000
0.614900 0.641451 0.000000
0.671824 0.708827 0.000000
0.751152 0.764491 0.000000
0.863708 0.796990 0.000000
1.000000 0.811159 0.000000
0.000000 0.143572 0.000000
0.175495 0.161139 0.000000
0.315544 0.198913 0.000000
0.407158 0.265117 0.000000
0.467961 0.343083 0.000000
0.488592 0.420258 0.000000
0.500000 0.500000 0.000000
0.511408 0.579742 0.000000
0.532039 0.656917 0.000000
0.592842 0.734883 0.000000
0.684456 0.801087 0.000000
0.824505 0.838861 0.000000
1.000000 0.856428 0.000000
0.000000 0.188841 0.000000
0.136292 0.203010 0.000000
0.248848 0.235509 0.000000
0.328176 0.291173 0.000000
0.385100 0.358549 0.000000
0.405650 0.432017 0.000000
0.420258 0.511408 0.000000
0.432017 0.594350 0.000000
0.458930 0.677290 0.000000
0.522730 0.760363 0.000000
0.621967 0.831014 0.000000
0.784539 0.872034 0.000000
1.000000 0.888736 0.000000
0.000000 0.247213 0.000000
0.101324 0.259719 0.000000
0.187580 0.289089 0.000000
0.252347 0.335336 0.000000
0.301257 0.392409 0.000000
0.322710 0.458930 0.000000
0.343083 0.532039 0.000000
0.358549 0.614900 0.000000
0.392409 0.698743 0.000000
0.456816 0.784193 0.000000
0.563146 0.856536 0.000000
0.745762 0.899294 0.000000
1.000000 0.915943 0.000000
0.000000 0.330546 0.000000
0.067021 0.339953 0.000000
0.127622 0.364356 0.000000
0.176767 0.404386 0.000000
0.215807 0.456816 0.000000
0.239637 0.522730 0.000000
0.265117 0.592842 0.000000
0.291173 0.671824 0.000000
0.335336 0.747653 0.000000
0.404386 0.823233 0.000000
0.518276 0.886321 0.000000
0.715205 0.925401 0.000000
1.000000 0.939941 0.000000
0.000000 0.456859 0.000000
0.041535 0.463980 0.000000
0.080524 0.484922 0.000000
0.113679 0.518276 0.000000
0.143464 0.563146 0.000000
0.168986 0.621967 0.000000
0.198913 0.684456 0.000000
0.235509 0.751152 0.000000
0.289089 0.812420 0.000000
0.364356 0.872378 0.000000
0.484922 0.919476 0.000000
0.693040 0.949980 0.000000
1.000000 0.960160 0.000000
0.000000 0.673116 0.000000
0.025014 0.677794 0.000000
0.050020 0.693040 0.000000
0.074599 0.715205 0.000000
0.100706 0.745762 0.000000
0.127966 0.784539 0.000000
0.161139 0.824505 0.000000
0.203010 0.863708 0.000000
0.259719 0.898676 0.000000
0.339952 0.932979 0.000000
0.463980 0.958465 0.000000
0.677794 0.974986 0.000000
1.000000 0.980495 0.000000
0.000000 1.000000 0.000000
0.019505 1.000000 0.000000
0.039840 1.000000 0.000000
0.060059 1.000000 0.000000
0.084057 1.000000 0.000000
0.111264 1.000000 0.000000
0.143572 1.000000 0.000000
0.188841 1.000000 0.000000
0.247213 1.000000 0.000000
0.330546 1.000000 0.000000
0.456859 1.000000 0.000000
0.673116 1.000000 0.000000
1.000000 1.000000 0.000000
0.000000 0.000000 0.082500
0.326885 0.000000 0.082500
0.543141 0.000000 0.082500
0.669454 0.000000 0.082500
0.752787 0.000000 0.082500
0.811159 0.000000 0.082500
0.856428 0.000000 0.082500
0.888736 0.000000 0.082500
0.915943 0.000000 0.082500
0.939941 0.000000 0.082500
0.960160 0.000000 0.082500
0.980495 0.000000 0.082500
1.000000 0.000000 0.082500
0.000000 0.019506 0.082500
0.322207 0.025014 0.082500
0.536020 0.041535 0.082500
0.660047 0.067021 0.082500
0.740281 0.101324 0.082500
0.796990 0.136292 0.082500
0.838861 0.175495 0.082500
0.872034 0.215461 0.082500
0.899294 0.254239 0.082500
0.925401 0.284795 0.082500
0.949980 0.306961 0.082500
0.974986 0.322207 0.082500
1.000000 0.326885 0.082500
0.000000 0.039840 0.082500
0.306961 0.050020 0.082500
0.515078 0.080524 0.082500
0.635644 0.127622 0.082500
0.710911 0.187580 0.082500
0.764491 0.248848 0.082500
0.801087 0.315544 0.082500
0.831014 0.378033 0.082500
0.856536 0.436854 0.082500
0.886321 0.481724 0.082500
0.919476 0.515078 0.082500
0.958465 0.536020 0.082500
1.000000 0.543141 0.082500
0.000000 0.060059 0.082500
0.284795 0.074599 0.082500
0.481724 0.113679 0.082500
0.595614 0.176767 0.082500
0.664664 0.252347 0.082500
0.708827 0.328176 0.082500
0.734883 0.407158 0.082500
0.760363 0.477270 0.082500
0.784193 0.543184 0.082500
0.823233 0.595614 0.082500
0.872378 0.635644 0.082500
0.932979 0.660048 0.082500
1.000000 0.669454 0.082500
0.000000 0.084057 0.082500
0.254239 0.100706 0.082500
0.436854 0.143464 0.082500
0.543184 0.215807 0.082500
0.607591 0.301257 0.082500
0.641451 0.385100 0.082500
0.656917 0.467961 0.082500
0.677290 0.541070 0.082500
0.698743 0.607591 0.082500
0.747653 0.664664 0.082500
0.812420 0.710911 0.082500
0.898676 0.740281 0.082500
1.000000 0.752787 0.082500
0.000000 0.111264 0.082500
0.215461 0.127966 0.082500
0.378033 0.168986 0.082500
0.477270 0.239637 0.082500
0.541070 0.322710 0.082500
0.567983 0.405650 0.082500
0.579742 0.488592 0.082500
0.594350 0.567983 0.082500
0.614900 0.641451 0.082500
0.671824 0.708827 0.082500
0.751152 0.764491 0.082500
0.863708 0.796990 0.082500
1.000000 0.811159 0.082500
0.000000 0.143572 0.082500
0.175495 0.161139 0.082500
0.315544 0.198913 0.082500
0.407158 0.265117 0.082500
0.467961 0.343083 0.082500
0.488592 0.420258 0.082500
0.500000 0.500000 0.082500
0.511408 0.579742 0.082500
0.532039 0.656917 0.082500
0.592842 0.734883 0.082500
0.684456 0.801087 0.082500
0.824505 0.838861 0.082500
1.000000 0.856428 0.082500
0.000000 0.188841 0.082500
0.136292 0.203010 0.082500
0.248848 0.235509 0.082500
0.328176 0.291173 0.082500
0.385100 0.358549 0.082500
0.405650 0.432017 0.082500
0.420258 0.511408 0.082500
0.432017 0.594350 0.082500
0.458930 0.677290 0.082500
0.522730 0.760363 0.082500
0.621967 0.831014 0.082500
0.784539 0.872034 0.082500
1.000000 0.888736 0.082500
0.000000 0.247213 0.082500
0.101324 0.259719 0.082500
0.187580 0.289089 0.082500
0.252347 0.335336 0.082500
0.301257 0.392409 0.082500
0.322710 0.458930 0.082500
0.343083 0.532039 0.082500
0.358549 0.614900 0.082500
0.392409 0.698743 0.082500
0.456816 0.784193 0.082500
0.563146 0.856536 0.082500
0.745762 0.899294 0.082500
1.000000 0.915943 0.082500
0.000000 0.330546 0.082500
0.067021 0.339953 0.082500
0.127622 0.364356 0.082500
0.176767 0.404386 0.082500
0.215807 0.456816 0.082500
0.239637 0.522730 0.082500
0.265117 0.592842 0.082500
0.291173 0.671824 0.082500
0.335336 0.747653 0.082500
0.404386 0.823233 0.082500
0.518276 0.886321 0.082500
0.715205 0.925401 0.082500
1.000000 0.939941 0.082500
0.000000 0.456859 0.082500
0.041535 0.463980 0.082500
0.080524 0.484922 0.082500
0.113679 0.518276 0.082500
0.143464 0.563146 0.082500
0.168986 0.621967 0.082500
0.198913 0.684456 0.082500
0.235509 0.751152 0.082500
0.289089 0.812420 0.082500
0.364356 0.872378 0.082500
0.484922 0.919476 0.082500
0.693040 0.949980 0.082500
1.000000 0.960160 0.082500
0.000000 0.673116 0.082500
0.025014 0.677794 0.082500
0.050020 0.693040 0.082500
0.074599 0.715205 0.082500
0.100706 0.745762 0.082500
0.127966 0.784539 0.082500
0.161139 0.824505 0.082500
0.203010 0.863708 0.082500
0.259719 0.898676 0.082500
0.339952 0.932979 0.082500
0.463980 0.958465 0.082500
0.677794 0.974986 0.082500
1.000000 0.980495 0.082500
0.000000 1.000000 0.082500
0.019505 1.000000 0.082500
0.039840 1.000000 0.082500
0.060059 1.000000 0.082500
0.084057 1.000000 0.082500
0.111264 1.000000 0.082500
0.143572 1.000000 0.082500
0.188841 1.000000 0.082500
0.247213 1.000000 0.082500
0.330546 1.000000 0.082500
0.456859 1.000000 0.082500
0.673116 1.000000 0.082500
1.000000 1.000000 0.082500
0.000000 0.000000 0.165000
0.326885 0.000000 0.165000
0.543141 0.000000 0.165000
0.669454 0.000000 0.165000
0.752787 0.000000 0.165000
0.811159 0.000000 0.165000
0.856428 0.000000 0.165000
0.888736 0.000000 0.165000
0.915943 0.000000 0.165000
0.939941 0.000000 0.165000
0.960160 0.000000 0.165000
0.980495 0.000000 0.165000
1.000000 0.000000 0.165000
0.000000 0.019506 0.165000
0.322207 0.025014 0.165000
0.536020 0.041535 0.165000
0.660047 0.067021 0.165000
0.740281 0.101324 0.165000
0.796990 0.136292 0.165000
0.838861 0.175495 0.165000
0.872034 0.215461 0.165000
0.899294 0.254239 0.165000
0.925401 0.284795 0.165000
0.949980 0.306961 0.165000
0.974986 0.322207 0.165000
1.000000 0.326885 0.165000
0.000000 0.039840 0.165000
0.306961 0.050020 0.165000
[...]
POINT_DATA 845 
VECTORS pos float 
0.000000 0.000000 0.000000
0.326885 0.000000 0.000000
0.543141 0.000000 0.000000
0.669454 0.000000 0.000000
0.752787 0.000000 0.000000
0.811159 0.000000 0.000000
0.856428 0.000000 0.000000
0.888736 0.000000 0.000000
0.915943 0.000000 0.000000
0.939941 0.000000 0.000000
0.960160 0.000000 0.000000
0.980495 0.000000 0.000000
1.000000 0.000000 0.000000
0.000000 0.019506 0.000000
0.322207 0.025014 0.000000
0.536020 0.041535 0.000000
0.660047 0.067021 0.000000
0.740281 0.101324 0.000000
0.796990 0.136292 0.000000
0.838861 0.175495 0.000000
0.872034 0.215461 0.000000
0.899294 0.254239 0.000000
0.925401 0.284795 0.000000
0.949980 0.306961 0.000000
0.974986 0.322207 0.000000
1.000000 0.326885 0.000000
0.000000 0.039840 0.000000
0.306961 0.050020 0.000000
0.515078 0.080524 0.000000
0.635644 0.127622 0.000000
0.710911 0.187580 0.000000
0.764491 0.248848 0.000000
0.801087 0.315544 0.000000
0.831014 0.378033 0.000000
0.856536 0.436854 0.000000
0.886321 0.481724 0.000000
0.919476 0.515078 0.000000
0.958465 0.536020 0.000000
1.000000 0.543141 0.000000
0.000000 0.060059 0.000000
0.284795 0.074599 0.000000
0.481724 0.113679 0.000000
0.595614 0.176767 0.000000
0.664664 0.252347 0.000000
0.708827 0.328176 0.000000
0.734883 0.407158 0.000000
0.760363 0.477270 0.000000
0.784193 0.543184 0.000000
0.823233 0.595614 0.000000
0.872378 0.635644 0.000000
0.932979 0.660048 0.000000
1.000000 0.669454 0.000000
0.000000 0.084057 0.000000
0.254239 0.100706 0.000000
0.436854 0.143464 0.000000
0.543184 0.215807 0.000000
0.607591 0.301257 0.000000
0.641451 0.385100 0.000000
0.656917 0.467961 0.000000
0.677290 0.541070 0.000000
0.698743 0.607591 0.000000
0.747653 0.664664 0.000000
0.812420 0.710911 0.000000
0.898676 0.740281 0.000000
1.000000 0.752787 0.000000
0.000000 0.111264 0.000000
0.215461 0.127966 0.000000
0.378033 0.168986 0.000000
0.477270 0.239637 0.000000
0.541070 0.322710 0.000000
0.567983 0.405650 0.000000
0.579742 0.488592 0.000000
0.594350 0.567983 0.000000
0.614900 0.641451 0.000000
0.671824 0.708827 0.000000
0.751152 0.764491 0.000000
0.863708 0.796990 0.000000
1.000000 0.811159 0.000000
0.000000 0.143572 0.000000
0.175495 0.161139 0.000000
0.315544 0.198913 0.000000
0.407158 0.265117 0.000000
0.467961 0.343083 0.000000
0.488592 0.420258 0.000000
0.500000 0.500000 0.000000
0.511408 0.579742 0.000000
0.532039 0.656917 0.000000
0.592842 0.734883 0.000000
0.684456 0.801087 0.000000
0.824505 0.838861 0.000000
1.000000 0.856428 0.000000
0.000000 0.188841 0.000000
0.136292 0.203010 0.000000
0.248848 0.235509 0.000000
0.328176 0.291173 0.000000
0.385100 0.358549 0.000000
0.405650 0.432017 0.000000
0.420258 0.511408 0.000000
0.432017 0.594350 0.000000
0.458930 0.677290 0.000000
0.522730 0.760363 0.000000
0.621967 0.831014 0.000000
0.784539 0.872034 0.000000
1.000000 0.888736 0.000000
0.000000 0.247213 0.000000
0.101324 0.259719 0.000000
0.187580 0.289089 0.000000
0.252347 0.335336 0.000000
0.301257 0.392409 0.000000
0.322710 0.458930 0.000000
0.343083 0.532039 0.000000
0.358549 0.614900 0.000000
0.392409 0.698743 0.000000
0.456816 0.784193 0.000000
0.563146 0.856536 0.000000
0.745762 0.899294 0.000000
1.000000 0.915943 0.000000
0.000000 0.330546 0.000000
0.067021 0.339953 0.000000
0.127622 0.364356 0.000000
0.176767 0.404386 0.000000
0.215807 0.456816 0.000000
0.239637 0.522730 0.000000
0.265117 0.592842 0.000000
0.291173 0.671824 0.000000
0.335336 0.747653 0.000000
0.404386 0.823233 0.000000
0.518276 0.886321 0.000000
0.715205 0.925401 0.000000
1.000000 0.939941 0.000000
0.000000 0.456859 0.000000
0.041535 0.463980 0.000000
0.080524 0.484922 0.000000
0.113679 0.518276 0.000000
0.143464 0.563146 0.000000
0.168986 0.621967 0.000000
0.198913 0.684456 0.000000
0.235509 0.751152 0.000000
0.289089 0.812420 0.000000
0.364356 0.872378 0.000000
0.484922 0.919476 0.000000
0.693040 0.949980 0.000000
1.000000 0.960160 0.000000
0.000000 0.673116 0.000000
0.025014 0.677794 0.000000
0.050020 0.693040 0.000000
0.074599 0.715205 0.000000
0.100706 0.745762 0.000000
0.127966 0.784539 0.000000
0.161139 0.824505 0.000000
0.203010 0.863708 0.000000
0.259719 0.898676 0.000000
0.339952 0.932979 0.000000
0.463980 0.958465 0.000000
0.677794 0.974986 0.000000
1.000000 0.980495 0.000000
0.000000 1.000000 0.000000
0.019505 1.000000 0.000000
0.039840 1.000000 0.000000
0.060059 1.000000 0.000000
0.084057 1.000000 0.000000
0.111264 1.000000 0.000000
0.143572 1.000000 0.000000
0.188841 1.000000 0.000000
0.247213 1.000000 0.000000
0.330546 1.000000 0.000000
0.456859 1.000000 0.000000
0.673116 1.000000 0.000000
1.000000 1.000000 0.000000
0.000000 0.000000 0.082500
0.326885 0.000000 0.082500
0.543141 0.000000 0.082500
0.669454 0.000000 0.082500
0.752787 0.000000 0.082500
0.811159 0.000000 0.082500
0.856428 0.000000 0.082500
0.888736 0.000000 0.082500
0.915943 0.000000 0.082500
0.939941 0.000000 0.082500
0.960160 0.000000 0.082500
0.980495 0.000000 0.082500
1.000000 0.000000 0.082500
0.000000 0.019506 0.082500
0.322207 0.025014 0.082500
0.536020 0.041535 0.082500
0.660047 0.067021 0.082500
0.740281 0.101324 0.082500
0.796990 0.136292 0.082500
0.838861 0.175495 0.082500
0.872034 0.215461 0.082500
0.899294 0.254239 0.082500
0.925401 0.284795 0.082500
0.949980 0.306961 0.082500
0.974986 0.322207 0.082500
1.000000 0.326885 0.082500
0.000000 0.039840 0.082500
0.306961 0.050020 0.082500
0.515078 0.080524 0.082500
0.635644 0.127622 0.082500
0.710911 0.187580 0.082500
0.764491 0.248848 0.082500
0.801087 0.315544 0.082500
0.831014 0.378033 0.082500
0.856536 0.436854 0.082500
0.886321 0.481724 0.082500
0.919476 0.515078 0.082500
0.958465 0.536020 0.082500
1.000000 0.543141 0.082500
0.000000 0.060059 0.082500
0.284795 0.074599 0.082500
0.481724 0.113679 0.082500
0.595614 0.176767 0.082500
0.664664 0.252347 0.082500
0.708827 0.328176 0.082500
0.734883 0.407158 0.082500
0.760363 0.477270 0.082500
0.784193 0.543184 0.082500
0.823233 0.595614 0.082500
0.872378 0.635644 0.082500
0.932979 0.660048 0.082500
1.000000 0.669454 0.082500
0.000000 0.084057 0.082500
0.254239 0.100706 0.082500
0.436854 0.143464 0.082500
0.543184 0.215807 0.082500
0.607591 0.301257 0.082500
0.641451 0.385100 0.082500
0.656917 0.467961 0.082500
0.677290 0.541070 0.082500
0.698743 0.607591 0.082500
0.747653 0.664664 0.082500
0.812420 0.710911 0.082500
0.898676 0.740281 0.082500
1.000000 0.752787 0.082500
0.000000 0.111264 0.082500
0.215461 0.127966 0.082500
0.378033 0.168986 0.082500
0.477270 0.239637 0.082500
0.541070 0.322710 0.082500
0.567983 0.405650 0.082500
0.579742 0.488592 0.082500
0.594350 0.567983 0.082500
0.614900 0.641451 0.082500
0.671824 0.708827 0.082500
0.751152 0.764491 0.082500
0.863708 0.796990 0.082500
1.000000 0.811159 0.082500
0.000000 0.143572 0.082500
0.175495 0.161139 0.082500
0.315544 0.198913 0.082500
0.407158 0.265117 0.082500
0.467961 0.343083 0.082500
0.488592 0.420258 0.082500
0.500000 0.500000 0.082500
0.511408 0.579742 0.082500
0.532039 0.656917 0.082500
0.592842 0.734883 0.082500
0.684456 0.801087 0.082500
0.824505 0.838861 0.082500
1.000000 0.856428 0.082500
0.000000 0.188841 0.082500
0.136292 0.203010 0.082500
0.248848 0.235509 0.082500
0.328176 0.291173 0.082500
0.385100 0.358549 0.082500
0.405650 0.432017 0.082500
0.420258 0.511408 0.082500
0.432017 0.594350 0.082500
0.458930 0.677290 0.082500
0.522730 0.760363 0.082500
0.621967 0.831014 0.082500
0.784539 0.872034 0.082500
1.000000 0.888736 0.082500
0.000000 0.247213 0.082500
0.101324 0.259719 0.082500
0.187580 0.289089 0.082500
0.252347 0.335336 0.082500
0.301257 0.392409 0.082500
0.322710 0.458930 0.082500
0.343083 0.532039 0.082500
0.358549 0.614900 0.082500
0.392409 0.698743 0.082500
0.456816 0.784193 0.082500
0.563146 0.856536 0.082500
0.745762 0.899294 0.082500
1.000000 0.915943 0.082500
0.000000 0.330546 0.082500
0.067021 0.339953 0.082500
0.127622 0.364356 0.082500
0.176767 0.404386 0.082500
0.215807 0.456816 0.082500
0.239637 0.522730 0.082500
0.265117 0.592842 0.082500
0.291173 0.671824 0.082500
0.335336 0.747653 0.082500
0.404386 0.823233 0.082500
0.518276 0.886321 0.082500
0.715205 0.925401 0.082500
1.000000 0.939941 0.082500
0.000000 0.456859 0.082500
0.041535 0.463980 0.082500
0.080524 0.484922 0.082500
0.113679 0.518276 0.082500
0.143464 0.563146 0.082500
0.168986 0.621967 0.082500
0.198913 0.684456 0.082500
0.235509 0.751152 0.082500
0.289089 0.812420 0.082500
0.364356 0.872378 0.082500
0.484922 0.919476 0.082500
0.693040 0.949980 0.082500
1.000000 0.960160 0.082500
0.000000 0.673116 0.082500
0.025014 0.677794 0.082500
0.050020 0.693040 0.082500
0.074599 0.715205 0.082500
0.100706 0.745762 0.082500
0.127966 0.784539 0.082500
0.161139 0.824505 0.082500
0.203010 0.863708 0.082500
0.259719 0.898676 0.082500
0.339952 0.932979 0.082500
0.463980 0.958465 0.082500
0.677794 0.974986 0.082500
1.000000 0.980495 0.082500
0.000000 1.000000 0.082500
0.019505 1.000000 0.082500
0.039840 1.000000 0.082500
0.060059 1.000000 0.082500
0.084057 1.000000 0.082500
0.111264 1.000000 0.082500
0.143572 1.000000 0.082500
0.188841 1.000000 0.082500
0.247213 1.000000 0.082500
0.330546 1.000000 0.082500
0.456859 1.000000 0.082500
0.673116 1.000000 0.082500
1.000000 1.000000 0.082500
0.000000 0.000000 0.165000
0.326885 0.000000 0.165000
0.543141 0.000000 0.165000
0.669454 0.000000 0.165000
0.752787 0.000000 0.165000
0.811159 0.000000 0.165000
0.856428 0.000000 0.165000
0.888736 0.000000 0.165000
0.915943 0.000000 0.165000
0.939941 0.000000 0.165000
0.960160 0.000000 0.165000
0.980495 0.000000 0.165000
1.000000 0.000000 0.165000
0.000000 0.019506 0.165000
0.322207 0.025014 0.165000
0.536020 0.041535 0.165000
0.660047 0.067021 0.165000
0.740281 0.101324 0.165000
0.796990 0.136292 0.165000
0.838861 0.175495 0.165000
0.872034 0.215461 0.165000
0.899294 0.254239 0.165000
0.925401 0.284795 0.165000
0.949980 0.306961 0.165000
0.974986 0.322207 0.165000
1.000000 0.326885 0.165000
0.000000 0.039840 0.165000
0.306961 0.050020 0.165000
0.515078 0.080524 0.165000
0.635644 0.127622 0.165000
0.710911 0.187580 0.165000
0.764491 0.248848 0.165000
0.801087 0.315544 0.165000
0.831014 0.378033 0.165000
0.856536 0.436854 0.165000
0.886321 0.481724 0.165000
0.919476 0.515078 0.165000
0.958465 0.536020 0.165000
1.000000 0.543141 0.165000
0.000000 0.060059 0.165000
0.284795 0.074599 0.165000
0.481724 0.113679 0.165000
0.595614 0.176767 0.165000
0.664664 0.252347 0.165000
0.708827 0.328176 0.165000
0.734883 0.407158 0.165000
0.760363 0.477270 0.165000
0.784193 0.543184 0.165000
0.823233 0.595614 0.165000
0.872378 0.635644 0.165000
0.932979 0.660048 0.165000
1.000000 0.669454 0.165000
0.000000 0.084057 0.165000
0.254239 0.100706 0.165000
0.436854 0.143464 0.165000
0.543184 0.215807 0.165000
0.607591 0.301257 0.165000
0.641451 0.385100 0.165000
0.656917 0.467961 0.165000
0.677290 0.541070 0.165000
0.698743 0.607591 0.165000
0.747653 0.664664 0.165000
0.812420 0.710911 0.165000
0.898676 0.740281 0.165000
1.000000 0.752787 0.165000
0.000000 0.111264 0.165000
0.215461 0.127966 0.165000
0.378033 0.168986 0.165000
0.477270 0.239637 0.165000
0.541070 0.322710 0.165000
0.567983 0.405650 0.165000
0.579742 0.488592 0.165000
0.594350 0.567983 0.165000
0.614900 0.641451 0.165000
0.671824 0.708827 0.165000
0.751152 0.764491 0.165000
0.863708 0.796990 0.165000
1.000000 0.811159 0.165000
0.000000 0.143572 0.165000
0.175495 0.161139 0.165000
0.315544 0.198913 0.165000
0.407158 0.265117 0.165000
0.467961 0.343083 0.165000
0.488592 0.420258 0.165000
0.500000 0.500000 0.165000
0.511408 0.579742 0.165000
0.532039 0.656917 0.165000
0.592842 0.734883 0.165000
0.684456 0.801087 0.165000
0.824505 0.838861 0.165000
1.000000 0.856428 0.165000
0.000000 0.188841 0.165000
0.136292 0.203010 0.165000
0.248848 0.235509 0.165000
0.328176 0.291173 0.165000
0.385100 0.358549 0.165000
0.405650 0.432017 0.165000
0.420258 0.511408 0.165000
0.432017 0.594350 0.165000
0.458930 0.677290 0.165000
0.522730 0.760363 0.165000
0.621967 0.831014 0.165000
0.784539 0.872034 0.165000
1.000000 0.888736 0.165000
0.000000 0.247213 0.165000
0.101324 0.259719 0.165000
0.187580 0.289089 0.165000
0.252347 0.335336 0.165000
0.301257 0.392409 0.165000
0.322710 0.458930 0.165000
0.343083 0.532039 0.165000
0.358549 0.614900 0.165000
0.392409 0.698743 0.165000
0.456816 0.784193 0.165000
0.563146 0.856536 0.165000
0.745762 0.899294 0.165000
1.000000 0.915943 0.165000
0.000000 0.330546 0.165000
0.067021 0.339953 0.165000
0.127622 0.364356 0.165000
0.176767 0.404386 0.165000
0.215807 0.456816 0.165000
0.239637 0.522730 0.165000
0.265117 0.592842 0.165000
0.291173 0.671824 0.165000
0.335336 0.747653 0.165000
0.404386 0.823233 0.165000
0.518276 0.886321 0.165000
0.715205 0.925401 0.165000
1.000000 0.939941 0.165000
0.000000 0.456859 0.165000
0.041535 0.463980 0.165000
0.080524 0.484922 0.165000
0.113679 0.518276 0.165000
0.143464 0.563146 0.165000
0.168986 0.621967 0.165000
0.198913 0.684456 0.165000
0.235509 0.751152 0.165000
0.289089 0.812420 0.165000
0.364356 0.872378 0.165000
0.484922 0.919476 0.165000
0.693040 0.949980 0.165000
1.000000 0.960160 0.165000
0.000000 0.673116 0.165000
0.025014 0.677794 0.165000
0.050020 0.693040 0.165000
0.074599 0.715205 0.165000
0.100706 0.745762 0.165000
0.127966 0.784539 0.165000
0.161139 0.824505 0.165000
0.203010 0.863708 0.165000
0.259719 0.898676 0.165000
0.339952 0.932979 0.165000
0.463980 0.958465 0.165000
0.677794 0.974986 0.165000
1.000000 0.980495 0.165000
0.000000 1.000000 0.165000
0.019505 1.000000 0.165000
0.039840 1.000000 0.165000
0.060059 1.000000 0.165000
0.084057 1.000000 0.165000
0.111264 1.000000 0.165000
0.143572 1.000000 0.165000
0.188841 1.000000 0.165000
0.247213 1.000000 0.165000
0.330546 1.000000 0.165000
0.456859 1.000000 0.165000
0.673116 1.000000 0.165000
1.000000 1.000000 0.165000
0.000000 0.000000 0.247500
0.326885 0.000000 0.247500
0.543141 0.000000 0.247500
0.669454 0.000000 0.247500
0.752787 0.000000 0.247500
0.811159 0.000000 0.247500
0.856428 0.000000 0.247500
0.888736 0.000000 0.247500
0.915943 0.000000 0.247500
0.939941 0.000000 0.247500
0.960160 0.000000 0.247500
0.980495 0.000000 0.247500
1.000000 0.000000 0.247500
0.000000 0.019506 0.247500
0.322207 0.025014 0.247500
0.536020 0.041535 0.247500
0.660047 0.067021 0.247500
0.740281 0.101324 0.247500
0.796990 0.136292 0.247500
0.838861 0.175495 0.247500
0.872034 0.215461 0.247500
0.899294 0.254239 0.247500
0.925401 0.284795 0.247500
0.949980 0.306961 0.247500
0.974986 0.322207 0.247500
1.000000 0.326885 0.247500
0.000000 0.039840 0.247500
0.306961 0.050020 0.247500
0.515078 0.080524 0.247500
0.635644 0.127622 0.247500
0.710911 0.187580 0.247500
0.764491 0.248848 0.247500
0.801087 0.315544 0.247500
0.831014 0.378033 0.247500
0.856536 0.436854 0.247500
0.886321 0.481724 0.247500
0.919476 0.515078 0.247500
0.958465 0.536020 0.247500
1.000000 0.543141 0.247500
0.000000 0.060059 0.247500
0.284795 0.074599 0.247500
0.481724 0.113679 0.247500
0.595614 0.176767 0.247500
0.664664 0.252347 0.247500
0.708827 0.328176 0.247500
0.734883 0.407158 0.247500
0.760363 0.477270 0.247500
0.784193 0.543184 0.247500
0.823233 0.595614 0.247500
0.872378 0.635644 0.247500
0.932979 0.660048 0.247500
1.000000 0.669454 0.247500
0.000000 0.084057 0.247500
0.254239 0.100706 0.247500
0.436854 0.143464 0.247500
0.543184 0.215807 0.247500
0.607591 0.301257 0.247500
0.641451 0.385100 0.247500
0.656917 0.467961 0.247500
0.677290 0.541070 0.247500
0.698743 0.607591 0.247500
0.747653 0.664664 0.247500
0.812420 0.710911 0.247500
0.898676 0.740281 0.247500
1.000000 0.752787 0.247500
0.000000 0.111264 0.247500
0.215461 0.127966 0.247500
0.378033 0.168986 0.247500
0.477270 0.239637 0.247500
0.541070 0.322710 0.247500
0.567983 0.405650 0.247500
0.579742 0.488592 0.247500
0.594350 0.567983 0.247500
0.614900 0.641451 0.247500
0.671824 0.708827 0.247500
0.751152 0.764491 0.247500
0.863708 0.796990 0.247500
1.000000 0.811159 0.247500
0.000000 0.143572 0.247500
0.175495 0.161139 0.247500
0.315544 0.198913 0.247500
0.407158 0.265117 0.247500
0.467961 0.343083 0.247500
0.488592 0.420258 0.247500
0.500000 0.500000 0.247500
0.511408 0.579742 0.247500
0.532039 0.656917 0.247500
0.592842 0.734883 0.247500
0.684456 0.801087 0.247500
0.824505 0.838861 0.247500
1.000000 0.856428 0.247500
0.000000 0.188841 0.247500
0.136292 0.203010 0.247500
0.248848 0.235509 0.247500
0.328176 0.291173 0.247500
0.385100 0.358549 0.247500
0.405650 0.432017 0.247500
0.420258 0.511408 0.247500
0.432017 0.594350 0.247500
0.458930 0.677290 0.247500
0.522730 0.760363 0.247500
0.621967 0.831014 0.247500
0.784539 0.872034 0.247500
1.000000 0.888736 0.247500
0.000000 0.247213 0.247500
0.101324 0.259719 0.247500
0.187580 0.289089 0.247500
0.252347 0.335336 0.247500
0.301257 0.392409 0.247500
0.322710 0.458930 0.247500
0.343083 0.532039 0.247500
0.358549 0.614900 0.247500
0.392409 0.698743 0.247500
0.456816 0.784193 0.247500
0.563146 0.856536 0.247500
0.745762 0.899294 0.247500
1.000000 0.915943 0.247500
0.000000 0.330546 0.247500
0.067021 0.339953 0.247500
0.127622 0.364356 0.247500
0.176767 0.404386 0.247500
0.215807 0.456816 0.247500
0.239637 0.522730 0.247500
0.265117 0.592842 0.247500
0.291173 0.671824 0.247500
0.335336 0.747653 0.247500
0.404386 0.823233 0.247500
0.518276 0.886321 0.247500
0.715205 0.925401 0.247500
1.000000 0.939941 0.247500
0.000000 0.456859 0.247500
0.041535 0.463980 0.247500
0.080524 0.484922 0.247500
0.113679 0.518276 0.247500
0.143464 0.563146 0.247500
0.168986 0.621967 0.247500
0.198913 0.684456 0.247500
0.235509 0.751152 0.247500
0.289089 0.812420 0.247500
0.364356 0.872378 0.247500
0.484922 0.919476 0.247500
0.693040 0.949980 0.247500
1.000000 0.960160 0.247500
0.000000 0.673116 0.247500
0.025014 0.677794 0.247500
0.050020 0.693040 0.247500
0.074599 0.715205 0.247500
0.100706 0.745762 0.247500
0.127966 0.784539 0.247500
0.161139 0.824505 0.247500
0.203010 0.863708 0.247500
0.259719 0.898676 0.247500
0.339952 0.932979 0.247500
0.463980 0.958465 0.247500
0.677794 0.974986 0.247500
1.000000 0.980495 0.247500
0.000000 1.000000 0.247500
0.019505 1.000000 0.247500
0.039840 1.000000 0.247500
0.060059 1.000000 0.247500
0.084057 1.000000 0.247500
0.111264 1.000000 0.247500
0.143572 1.000000 0.247500
0.188841 1.000000 0.247500
0.247213 1.000000 0.247500
0.330546 1.000000 0.247500
0.456859 1.000000 0.247500
0.673116 1.000000 0.247500
1.000000 1.000000 0.247500
0.000000 0.000000 0.330000
0.326885 0.000000 0.330000
0.543141 0.000000 0.330000
0.669454 0.000000 0.330000
0.752787 0.000000 0.330000
0.811159 0.000000 0.330000
0.856428 0.000000 0.330000
0.888736 0.000000 0.330000
0.915943 0.000000 0.330000
0.939941 0.000000 0.330000
0.960160 0.000000 0.330000
0.980495 0.000000 0.330000
1.000000 0.000000 0.330000
0.000000 0.019506 0.330000
0.322207 0.025014 0.330000
0.536020 0.041535 0.330000
0.660047 0.067021 0.330000
0.740281 0.101324 0.330000
0.796990 0.136292 0.330000
0.838861 0.175495 0.330000
0.872034 0.215461 0.330000
0.899294 0.254239 0.330000
0.925401 0.284795 0.330000
0.949980 0.306961 0.330000
0.974986 0.322207 0.330000
1.000000 0.326885 0.330000
0.000000 0.039840 0.330000
0.306961 0.050020 0.330000
0.515078 0.080524 0.330000
0.635644 0.127622 0.330000
0.710911 0.187580 0.330000
0.764491 0.248848 0.330000
0.801087 0.315544 0.330000
0.831014 0.378033 0.330000
0.856536 0.436854 0.330000
0.886321 0.481724 0.330000
0.919476 0.515078 0.330000
0.958465 0.536020 0.330000
1.000000 0.543141 0.330000
0.000000 0.060059 0.330000
0.284795 0.074599 0.330000
0.481724 0.113679 0.330000
0.595614 0.176767 0.330000
0.664664 0.252347 0.330000
0.708827 0.328176 0.330000
0.734883 0.407158 0.330000
0.760363 0.477270 0.330000
0.784193 0.543184 0.330000
0.823233 0.595614 0.330000
0.872378 0.635644 0.330000
0.932979 0.660048 0.330000
1.000000 0.669454 0.330000
0.000000 0.084057 0.330000
0.254239 0.100706 0.330000
0.436854 0.143464 0.330000
0.543184 0.215807 0.330000
0.607591 0.301257 0.330000
0.641451 0.385100 0.330000
0.656917 0.467961 0.330000
0.677290 0.541070 0.330000
0.698743 0.607591 0.330000
0.747653 0.664664 0.330000
0.812420 0.710911 0.330000