# vtk DataFile Version 2.0
Mesh for Fierro
ASCII 
DATASET UNSTRUCTURED_GRID

POINTS 845 float
0.000000 0.000000 0.000000
0.501153 0.000000 0.000000
0.894415 0.000000 0.000000
0.944484 0.000000 0.000000
0.958018 0.000000 0.000000
0.968174 0.000000 0.000000
0.976123 0.000000 0.000000
0.981246 0.000000 0.000000
0.984800 0.000000 0.000000
0.986139 0.000000 0.000000
0.984223 0.000000 0.000000
0.991849 0.000000 0.000000
1.000000 0.000000 0.000000
0.000000 0.008151 0.000000
0.611740 0.016163 0.000000
0.901638 0.106854 0.000000
0.882081 0.300599 0.000000
0.900060 0.376431 0.000000
0.901942 0.489734 0.000000
0.905712 0.584829 0.000000
0.911655 0.661684 0.000000
0.920522 0.712156 0.000000
0.935103 0.735366 0.000000
0.957954 0.709038 0.000000
0.983837 0.611740 0.000000
1.000000 0.501152 0.000000
0.000000 0.015777 0.000000
0.709038 0.042046 0.000000
0.848959 0.199476 0.000000
0.848166 0.414506 0.000000
0.840290 0.581500 0.000000
0.835924 0.671605 0.000000
0.813786 0.726963 0.000000
0.784493 0.743400 0.000000
0.780332 0.768369 0.000000
0.784679 0.803130 0.000000
0.800524 0.848959 0.000000
0.893146 0.901639 0.000000
1.000000 0.894415 0.000000
0.000000 0.013861 0.000000
0.735366 0.064897 0.000000
0.803130 0.215322 0.000000
0.824420 0.456966 0.000000
0.741665 0.587848 0.000000
0.722920 0.648236 0.000000
0.645104 0.691866 0.000000
0.568360 0.744340 0.000000
0.544572 0.790286 0.000000
0.543034 0.824420 0.000000
0.585495 0.848166 0.000000
0.699401 0.882082 0.000000
1.000000 0.944484 0.000000
0.000000 0.015201 0.000000
0.712156 0.079478 0.000000
0.768369 0.219668 0.000000
0.790286 0.455428 0.000000
0.689174 0.554261 0.000000
0.615004 0.631115 0.000000
0.532030 0.653700 0.000000
0.489166 0.669856 0.000000
0.445739 0.689174 0.000000
0.412152 0.741665 0.000000
0.418500 0.840290 0.000000
0.623570 0.900060 0.000000
1.000000 0.958018 0.000000
0.000000 0.018754 0.000000
0.661684 0.088345 0.000000
0.743400 0.215507 0.000000
0.744340 0.431640 0.000000
0.669856 0.510834 0.000000
0.587904 0.570599 0.000000
0.514047 0.575836 0.000000
0.429401 0.587904 0.000000
0.368885 0.615004 0.000000
0.351764 0.722920 0.000000
0.328395 0.835924 0.000000
0.510267 0.901942 0.000000
1.000000 0.968174 0.000000
0.000000 0.023877 0.000000
0.584828 0.094288 0.000000
0.726963 0.186214 0.000000
0.691866 0.354896 0.000000
0.653700 0.467970 0.000000
0.575836 0.485953 0.000000
0.500000 0.500000 0.000000
0.424163 0.514047 0.000000
0.346300 0.532030 0.000000
0.308134 0.645104 0.000000
0.273037 0.813786 0.000000
0.415173 0.905712 0.000000
1.000000 0.976123 0.000000
0.000000 0.031826 0.000000
0.489734 0.098058 0.000000
0.671605 0.164076 0.000000
0.648236 0.277080 0.000000
0.631115 0.384996 0.000000
0.570599 0.412095 0.000000
0.485953 0.424164 0.000000
0.412095 0.429401 0.000000
0.330144 0.489166 0.000000
0.255660 0.568360 0.000000
0.256600 0.784493 0.000000
0.338317 0.911655 0.000000
1.000000 0.981246 0.000000
0.000000 0.041982 0.000000
0.376430 0.099940 0.000000
0.581500 0.159710 0.000000
0.587848 0.258335 0.000000
0.554261 0.310826 0.000000
0.510834 0.330144 0.000000
0.467970 0.346300 0.000000
0.384996 0.368885 0.000000
0.310826 0.445739 0.000000
0.209714 0.544572 0.000000
0.231631 0.780331 0.000000
0.287845 0.920522 0.000000
1.000000 0.984800 0.000000
0.000000 0.055516 0.000000
0.300599 0.117919 0.000000
0.414505 0.151834 0.000000
0.456966 0.175580 0.000000
0.455428 0.209714 0.000000
0.431640 0.255660 0.000000
0.354896 0.308134 0.000000
0.277080 0.351764 0.000000
0.258335 0.412152 0.000000
0.175580 0.543034 0.000000
0.196870 0.784678 0.000000
0.264635 0.935104 0.000000
1.000000 0.986139 0.000000
0.000000 0.105585 0.000000
0.106854 0.098362 0.000000
0.199476 0.151041 0.000000
0.215322 0.196870 0.000000
0.219669 0.231631 0.000000
0.215507 0.256600 0.000000
0.186214 0.273037 0.000000
0.164076 0.328395 0.000000
0.159709 0.418500 0.000000
0.151834 0.585495 0.000000
0.151041 0.800524 0.000000
0.290962 0.957954 0.000000
1.000000 0.984223 0.000000
0.000000 0.498847 0.000000
0.016163 0.388260 0.000000
0.042046 0.290962 0.000000
0.064896 0.264635 0.000000
0.079478 0.287845 0.000000
0.088345 0.338317 0.000000
0.094288 0.415173 0.000000
0.098058 0.510267 0.000000
0.099940 0.623570 0.000000
0.117918 0.699401 0.000000
0.098362 0.893146 0.000000
0.388260 0.983837 0.000000
1.000000 0.991849 0.000000
0.000000 1.000000 0.000000
0.008151 1.000000 0.000000
0.015777 1.000000 0.000000
0.013861 1.000000 0.000000
0.015201 1.000000 0.000000
0.018754 1.000000 0.000000
0.023877 1.000000 0.000000
0.031826 1.000000 0.000000
0.041982 1.000000 0.000000
0.055516 1.000000 0.000000
0.105585 1.000000 0.000000
0.498848 1.000000 0.000000
1.000000 1.000000 0.000000
0.000000 0.000000 0.082500
0.501153 0.000000 0.082500
0.894415 0.000000 0.082500
0.944484 0.000000 0.082500
0.958018 0.000000 0.082500
0.968174 0.000000 0.082500
0.976123 0.000000 0.082500
0.981246 0.000000 0.082500
0.984800 0.000000 0.082500
0.986139 0.000000 0.082500
0.984223 0.000000 0.082500
0.991849 0.000000 0.082500
1.000000 0.000000 0.082500
0.000000 0.008151 0.082500
0.611740 0.016163 0.082500
0.901638 0.106854 0.082500
0.882081 0.300599 0.082500
0.900060 0.376431 0.082500
0.901942 0.489734 0.082500
0.905712 0.584829 0.082500
0.911655 0.661684 0.082500
0.920522 0.712156 0.082500
0.935103 0.735366 0.082500
0.957954 0.709038 0.082500
0.983837 0.611740 0.082500
1.000000 0.501152 0.082500
0.000000 0.015777 0.082500
0.709038 0.042046 0.082500
0.848959 0.199476 0.082500
0.848166 0.414506 0.082500
0.840290 0.581500 0.082500
0.835924 0.671605 0.082500
0.813786 0.726963 0.082500
0.784493 0.743400 0.082500
0.780332 0.768369 0.082500
0.784679 0.803130 0.082500
0.800524 0.848959 0.082500
0.893146 0.901639 0.082500
1.000000 0.894415 0.082500
0.000000 0.013861 0.082500
0.735366 0.064897 0.082500
0.803130 0.215322 0.082500
0.824420 0.456966 0.082500
0.741665 0.587848 0.082500
0.722920 0.648236 0.082500
0.645104 0.691866 0.082500
0.568360 0.744340 0.082500
0.544572 0.790286 0.082500
0.543034 0.824420 0.082500
0.585495 0.848166 0.082500
0.699401 0.882082 0.082500
1.000000 0.944484 0.082500
0.000000 0.015201 0.082500
0.712156 0.079478 0.082500
0.768369 0.219668 0.082500
0.790286 0.455428 0.082500
0.689174 0.554261 0.082500
0.615004 0.631115 0.082500
0.532030 0.653700 0.082500
0.489166 0.669856 0.082500
0.445739 0.689174 0.082500
0.412152 0.741665 0.082500
0.418500 0.840290 0.082500
0.623570 0.900060 0.082500
1.000000 0.958018 0.082500
0.000000 0.018754 0.082500
0.661684 0.088345 0.082500
0.743400 0.215507 0.082500
0.744340 0.431640 0.082500
0.669856 0.510834 0.082500
0.587904 0.570599 0.082500
0.514047 0.575836 0.082500
0.429401 0.587904 0.082500
0.368885 0.615004 0.082500
0.351764 0.722920 0.082500
0.328395 0.835924 0.082500
0.510267 0.901942 0.082500
1.000000 0.968174 0.082500
0.000000 0.023877 0.082500
0.584828 0.094288 0.082500
0.726963 0.186214 0.082500
0.691866 0.354896 0.082500
0.653700 0.467970 0.082500
0.575836 0.485953 0.082500
0.500000 0.500000 0.082500
0.424163 0.514047 0.082500
0.346300 0.532030 0.082500
0.308134 0.645104 0.082500
0.273037 0.813786 0.082500
0.415173 0.905712 0.082500
1.000000 0.976123 0.082500
0.000000 0.031826 0.082500
0.489734 0.098058 0.082500
0.671605 0.164076 0.082500
0.648236 0.277080 0.082500
0.631115 0.384996 0.082500
0.570599 0.412095 0.082500
0.485953 0.424164 0.082500
0.412095 0.429401 0.082500
0.330144 0.489166 0.082500
0.255660 0.568360 0.082500
0.256600 0.784493 0.082500
0.338317 0.911655 0.082500
1.000000 0.981246 0.082500
0.000000 0.041982 0.082500
0.376430 0.099940 0.082500
0.581500 0.159710 0.082500
0.587848 0.258335 0.082500
0.554261 0.310826 0.082500
0.510834 0.330144 0.082500
0.467970 0.346300 0.082500
0.384996 0.368885 0.082500
0.310826 0.445739 0.082500
0.209714 0.544572 0.082500
0.231631 0.780331 0.082500
0.287845 0.920522 0.082500
1.000000 0.984800 0.082500
0.000000 0.055516 0.082500
0.300599 0.117919 0.082500
0.414505 0.151834 0.082500
0.456966 0.175580 0.082500
0.455428 0.209714 0.082500
0.431640 0.255660 0.082500
0.354896 0.308134 0.082500
0.277080 0.351764 0.082500
0.258335 0.412152 0.082500
0.175580 0.543034 0.082500
0.196870 0.784678 0.082500
0.264635 0.935104 0.082500
1.000000 0.986139 0.082500
0.000000 0.105585 0.082500
0.106854 0.098362 0.082500
0.199476 0.151041 0.082500
0.215322 0.196870 0.082500
0.219669 0.231631 0.082500
0.215507 0.256600 0.082500
0.186214 0.273037 0.082500
0.164076 0.328395 0.082500
0.159709 0.418500 0.082500
0.151834 0.585495 0.082500
0.151041 0.800524 0.082500
0.290962 0.957954 0.082500
1.000000 0.984223 0.082500
0.000000 0.498847 0.082500
0.016163 0.388260 0.082500
0.042046 0.290962 0.082500
0.064896 0.264635 0.082500
0.079478 0.287845 0.082500
0.088345 0.338317 0.082500
0.094288 0.415173 0.082500
0.098058 0.510267 0.082500
0.099940 0.623570 0.082500
0.117918 0.699401 0.082500
0.098362 0.893146 0.082500
0.388260 0.983837 0.082500
1.000000 0.991849 0.082500
0.000000 1.000000 0.082500
0.008151 1.000000 0.082500
0.015777 1.000000 0.082500
0.013861 1.000000 0.082500
0.015201 1.000000 0.082500
0.018754 1.000000 0.082500
0.023877 1.000000 0.082500
0.031826 1.000000 0.082500
0.041982 1.000000 0.082500
0.055516 1.000000 0.082500
0.105585 1.000000 0.082500
0.498848 1.000000 0.082500
1.000000 1.000000 0.082500
0.000000 0.000000 0.165000
0.501153 0.000000 0.165000
0.894415 0.000000 0.165000
0.944484 0.000000 0.165000
0.958018 0.000000 0.165000
0.968174 0.000000 0.165000
0.976123 0.000000 0.165000
0.981246 0.000000 0.165000
0.984800 0.000000 0.165000
0.986139 0.000000 0.165000
0.984223 0.000000 0.165000
0.991849 0.000000 0.165000
1.000000 0.000000 0.165000
0.000000 0.008151 0.165000
0.611740 0.016163 0.165000
0.901638 0.106854 0.165000
0.882081 0.300599 0.165000
0.900060 0.376431 0.165000
0.901942 0.489734 0.165000
0.905712 0.584829 0.165000
0.911655 0.661684 0.165000
0.920522 0.712156 0.165000
0.935103 0.735366 0.165000
0.957954 0.709038 0.165000
0.983837 0.611740 0.165000
1.000000 0.501152 0.165000
0.000000 0.015777 0.165000
0.709038 0.042046 0.165000
[...]
POINT_DATA 845 
VECTORS pos float 
0.000000 0.000000 0.000000
0.501153 0.000000 0.000000
0.894415 0.000000 0.000000
0.944484 0.000000 0.000000
0.958018 0.000000 0.000000
0.968174 0.000000 0.000000
0.976123 0.000000 0.000000
0.981246 0.000000 0.000000
0.984800 0.000000 0.000000
0.986139 0.000000 0.000000
0.984223 0.000000 0.000000
0.991849 0.000000 0.000000
1.000000 0.000000 0.000000
0.000000 0.008151 0.000000
0.611740 0.016163 0.000000
0.901638 0.106854 0.000000
0.882081 0.300599 0.000000
0.900060 0.376431 0.000000
0.901942 0.489734 0.000000
0.905712 0.584829 0.000000
0.911655 0.661684 0.000000
0.920522 0.712156 0.000000
0.935103 0.735366 0.000000
0.957954 0.709038 0.000000
0.983837 0.611740 0.000000
1.000000 0.501152 0.000000
0.000000 0.015777 0.000000
0.709038 0.042046 0.000000
0.848959 0.199476 0.000000
0.848166 0.414506 0.000000
0.840290 0.581500 0.000000
0.835924 0.671605 0.000000
0.813786 0.726963 0.000000
0.784493 0.743400 0.000000
0.780332 0.768369 0.000000
0.784679 0.803130 0.000000
0.800524 0.848959 0.000000
0.893146 0.901639 0.000000
1.000000 0.894415 0.000000
0.000000 0.013861 0.000000
0.735366 0.064897 0.000000
0.803130 0.215322 0.000000
0.824420 0.456966 0.000000
0.741665 0.587848 0.000000
0.722920 0.648236 0.000000
0.645104 0.691866 0.000000
0.568360 0.744340 0.000000
0.544572 0.790286 0.000000
0.543034 0.824420 0.000000
0.585495 0.848166 0.000000
0.699401 0.882082 0.000000
1.000000 0.944484 0.000000
0.000000 0.015201 0.000000
0.712156 0.079478 0.000000
0.768369 0.219668 0.000000
0.790286 0.455428 0.000000
0.689174 0.554261 0.000000
0.615004 0.631115 0.000000
0.532030 0.653700 0.000000
0.489166 0.669856 0.000000
0.445739 0.689174 0.000000
0.412152 0.741665 0.000000
0.418500 0.840290 0.000000
0.623570 0.900060 0.000000
1.000000 0.958018 0.000000
0.000000 0.018754 0.000000
0.661684 0.088345 0.000000
0.743400 0.215507 0.000000
0.744340 0.431640 0.000000
0.669856 0.510834 0.000000
0.587904 0.570599 0.000000
0.514047 0.575836 0.000000
0.429401 0.587904 0.000000
0.368885 0.615004 0.000000
0.351764 0.722920 0.000000
0.328395 0.835924 0.000000
0.510267 0.901942 0.000000
1.000000 0.968174 0.000000
0.000000 0.023877 0.000000
0.584828 0.094288 0.000000
0.726963 0.186214 0.000000
0.691866 0.354896 0.000000
0.653700 0.467970 0.000000
0.575836 0.485953 0.000000
0.500000 0.500000 0.000000
0.424163 0.514047 0.000000
0.346300 0.532030 0.000000
0.308134 0.645104 0.000000
0.273037 0.813786 0.000000
0.415173 0.905712 0.000000
1.000000 0.976123 0.000000
0.000000 0.031826 0.000000
0.489734 0.098058 0.000000
0.671605 0.164076 0.000000
0.648236 0.277080 0.000000
0.631115 0.384996 0.000000
0.570599 0.412095 0.000000
0.485953 0.424164 0.000000
0.412095 0.429401 0.000000
0.330144 0.489166 0.000000
0.255660 0.568360 0.000000
0.256600 0.784493 0.000000
0.338317 0.911655 0.000000
1.000000 0.981246 0.000000
0.000000 0.041982 0.000000
0.376430 0.099940 0.000000
0.581500 0.159710 0.000000
0.587848 0.258335 0.000000
0.554261 0.310826 0.000000
0.510834 0.330144 0.000000
0.467970 0.346300 0.000000
0.384996 0.368885 0.000000
0.310826 0.445739 0.000000
0.209714 0.544572 0.000000
0.231631 0.780331 0.000000
0.287845 0.920522 0.000000
1.000000 0.984800 0.000000
0.000000 0.055516 0.000000
0.300599 0.117919 0.000000
0.414505 0.151834 0.000000
0.456966 0.175580 0.000000
0.455428 0.209714 0.000000
0.431640 0.255660 0.000000
0.354896 0.308134 0.000000
0.277080 0.351764 0.000000
0.258335 0.412152 0.000000
0.175580 0.543034 0.000000
0.196870 0.784678 0.000000
0.264635 0.935104 0.000000
1.000000 0.986139 0.000000
0.000000 0.105585 0.000000
0.106854 0.098362 0.000000
0.199476 0.151041 0.000000
0.215322 0.196870 0.000000
0.219669 0.231631 0.000000
0.215507 0.256600 0.000000
0.186214 0.273037 0.000000
0.164076 0.328395 0.000000
0.159709 0.418500 0.000000
0.151834 0.585495 0.000000
0.151041 0.800524 0.000000
0.290962 0.957954 0.000000
1.000000 0.984223 0.000000
0.000000 0.498847 0.000000
0.016163 0.388260 0.000000
0.042046 0.290962 0.000000
0.064896 0.264635 0.000000
0.079478 0.287845 0.000000
0.088345 0.338317 0.000000
0.094288 0.415173 0.000000
0.098058 0.510267 0.000000
0.099940 0.623570 0.000000
0.117918 0.699401 0.000000
0.098362 0.893146 0.000000
0.388260 0.983837 0.000000
1.000000 0.991849 0.000000
0.000000 1.000000 0.000000
0.008151 1.000000 0.000000
0.015777 1.000000 0.000000
0.013861 1.000000 0.000000
0.015201 1.000000 0.000000
0.018754 1.000000 0.000000
0.023877 1.000000 0.000000
0.031826 1.000000 0.000000
0.041982 1.000000 0.000000
0.055516 1.000000 0.000000
0.105585 1.000000 0.000000
0.498848 1.000000 0.000000
1.000000 1.000000 0.000000
0.000000 0.000000 0.082500
0.501153 0.000000 0.082500
0.894415 0.000000 0.082500
0.944484 0.000000 0.082500
0.958018 0.000000 0.082500
0.968174 0.000000 0.082500
0.976123 0.000000 0.082500
0.981246 0.000000 0.082500
0.984800 0.000000 0.082500
0.986139 0.000000 0.082500
0.984223 0.000000 0.082500
0.991849 0.000000 0.082500
1.000000 0.000000 0.082500
0.000000 0.008151 0.082500
0.611740 0.016163 0.082500
0.901638 0.106854 0.082500
0.882081 0.300599 0.082500
0.900060 0.376431 0.082500
0.901942 0.489734 0.082500
0.905712 0.584829 0.082500
0.911655 0.661684 0.082500
0.920522 0.712156 0.082500
0.935103 0.735366 0.082500
0.957954 0.709038 0.082500
0.983837 0.611740 0.082500
1.000000 0.501152 0.082500
0.000000 0.015777 0.082500
0.709038 0.042046 0.082500
0.848959 0.199476 0.082500
0.848166 0.414506 0.082500
0.840290 0.581500 0.082500
0.835924 0.671605 0.082500
0.813786 0.726963 0.082500
0.784493 0.743400 0.082500
0.780332 0.768369 0.082500
0.784679 0.803130 0.082500
0.800524 0.848959 0.082500
0.893146 0.901639 0.082500
1.000000 0.894415 0.082500
0.000000 0.013861 0.082500
0.735366 0.064897 0.082500
0.803130 0.215322 0.082500
0.824420 0.456966 0.082500
0.741665 0.587848 0.082500
0.722920 0.648236 0.082500
0.645104 0.691866 0.082500
0.568360 0.744340 0.082500
0.544572 0.790286 0.082500
0.543034 0.824420 0.082500
0.585495 0.848166 0.082500
0.699401 0.882082 0.082500
1.000000 0.944484 0.082500
0.000000 0.015201 0.082500
0.712156 0.079478 0.082500
0.768369 0.219668 0.082500
0.790286 0.455428 0.082500
0.689174 0.554261 0.082500
0.615004 0.631115 0.082500
0.532030 0.653700 0.082500
0.489166 0.669856 0.082500
0.445739 0.689174 0.082500
0.412152 0.741665 0.082500
0.418500 0.840290 0.082500
0.623570 0.900060 0.082500
1.000000 0.958018 0.082500
0.000000 0.018754 0.082500
0.661684 0.088345 0.082500
0.743400 0.215507 0.082500
0.744340 0.431640 0.082500
0.669856 0.510834 0.082500
0.587904 0.570599 0.082500
0.514047 0.575836 0.082500
0.429401 0.587904 0.082500
0.368885 0.615004 0.082500
0.351764 0.722920 0.082500
0.328395 0.835924 0.082500
0.510267 0.901942 0.082500
1.000000 0.968174 0.082500
0.000000 0.023877 0.082500
0.584828 0.094288 0.082500
0.726963 0.186214 0.082500
0.691866 0.354896 0.082500
0.653700 0.467970 0.082500
0.575836 0.485953 0.082500
0.500000 0.500000 0.082500
0.424163 0.514047 0.082500
0.346300 0.532030 0.082500
0.308134 0.645104 0.082500
0.273037 0.813786 0.082500
0.415173 0.905712 0.082500
1.000000 0.976123 0.082500
0.000000 0.031826 0.082500
0.489734 0.098058 0.082500
0.671605 0.164076 0.082500
0.648236 0.277080 0.082500
0.631115 0.384996 0.082500
0.570599 0.412095 0.082500
0.485953 0.424164 0.082500
0.412095 0.429401 0.082500
0.330144 0.489166 0.082500
0.255660 0.568360 0.082500
0.256600 0.784493 0.082500
0.338317 0.911655 0.082500
1.000000 0.981246 0.082500
0.000000 0.041982 0.082500
0.376430 0.099940 0.082500
0.581500 0.159710 0.082500
0.587848 0.258335 0.082500
0.554261 0.310826 0.082500
0.510834 0.330144 0.082500
0.467970 0.346300 0.082500
0.384996 0.368885 0.082500
0.310826 0.445739 0.082500
0.209714 0.544572 0.082500
0.231631 0.780331 0.082500
0.287845 0.920522 0.082500
1.000000 0.984800 0.082500
0.000000 0.055516 0.082500
0.300599 0.117919 0.082500
0.414505 0.151834 0.082500
0.456966 0.175580 0.082500
0.455428 0.209714 0.082500
0.431640 0.255660 0.082500
0.354896 0.308134 0.082500
0.277080 0.351764 0.082500
0.258335 0.412152 0.082500
0.175580 0.543034 0.082500
0.196870 0.784678 0.082500
0.264635 0.935104 0.082500
1.000000 0.986139 0.082500
0.000000 0.105585 0.082500
0.106854 0.098362 0.082500
0.199476 0.151041 0.082500
0.215322 0.196870 0.082500
0.219669 0.231631 0.082500
0.215507 0.256600 0.082500
0.186214 0.273037 0.082500
0.164076 0.328395 0.082500
0.159709 0.418500 0.082500
0.151834 0.585495 0.082500
0.151041 0.800524 0.082500
0.290962 0.957954 0.082500
1.000000 0.984223 0.082500
0.000000 0.498847 0.082500
0.016163 0.388260 0.082500
0.042046 0.290962 0.082500
0.064896 0.264635 0.082500
0.079478 0.287845 0.082500
0.088345 0.338317 0.082500
0.094288 0.415173 0.082500
0.098058 0.510267 0.082500
0.099940 0.623570 0.082500
0.117918 0.699401 0.082500
0.098362 0.893146 0.082500
0.388260 0.983837 0.082500
1.000000 0.991849 0.082500
0.000000 1.000000 0.082500
0.008151 1.000000 0.082500
0.015777 1.000000 0.082500
0.013861 1.000000 0.082500
0.015201 1.000000 0.082500
0.018754 1.000000 0.082500
0.023877 1.000000 0.082500
0.031826 1.000000 0.082500
0.041982 1.000000 0.082500
0.055516 1.000000 0.082500
0.105585 1.000000 0.082500
0.498848 1.000000 0.082500
1.000000 1.000000 0.082500
0.000000 0.000000 0.165000
0.501153 0.000000 0.165000
0.894415 0.000000 0.165000
0.944484 0.000000 0.165000
0.958018 0.000000 0.165000
0.968174 0.000000 0.165000
0.976123 0.000000 0.165000
0.981246 0.000000 0.165000
0.984800 0.000000 0.165000
0.986139 0.000000 0.165000
0.984223 0.000000 0.165000
0.991849 0.000000 0.165000
1.000000 0.000000 0.165000
0.000000 0.008151 0.165000
0.611740 0.016163 0.165000
0.901638 0.106854 0.165000
0.882081 0.300599 0.165000
0.900060 0.376431 0.165000
0.901942 0.489734 0.165000
0.905712 0.584829 0.165000
0.911655 0.661684 0.165000
0.920522 0.712156 0.165000
0.935103 0.735366 0.165000
0.957954 0.709038 0.165000
0.983837 0.611740 0.165000
1.000000 0.501152 0.165000
0.000000 0.015777 0.165000
0.709038 0.042046 0.165000
0.848959 0.199476 0.165000
0.848166 0.414506 0.165000
0.840290 0.581500 0.165000
0.835924 0.671605 0.165000
0.813786 0.726963 0.165000
0.784493 0.743400 0.165000
0.780332 0.768369 0.165000
0.784679 0.803130 0.165000
0.800524 0.848959 0.165000
0.893146 0.901639 0.165000
1.000000 0.894415 0.165000
0.000000 0.013861 0.165000
0.735366 0.064897 0.165000
0.803130 0.215322 0.165000
0.824420 0.456966 0.165000
0.741665 0.587848 0.165000
0.722920 0.648236 0.165000
0.645104 0.691866 0.165000
0.568360 0.744340 0.165000
0.544572 0.790286 0.165000
0.543034 0.824420 0.165000
0.585495 0.848166 0.165000
0.699401 0.882082 0.165000
1.000000 0.944484 0.165000
0.000000 0.015201 0.165000
0.712156 0.079478 0.165000
0.768369 0.219668 0.165000
0.790286 0.455428 0.165000
0.689174 0.554261 0.165000
0.615004 0.631115 0.165000
0.532030 0.653700 0.165000
0.489166 0.669856 0.165000
0.445739 0.689174 0.165000
0.412152 0.741665 0.165000
0.418500 0.840290 0.165000
0.623570 0.900060 0.165000
1.000000 0.958018 0.165000
0.000000 0.018754 0.165000
0.661684 0.088345 0.165000
0.743400 0.215507 0.165000
0.744340 0.431640 0.165000
0.669856 0.510834 0.165000
0.587904 0.570599 0.165000
0.514047 0.575836 0.165000
0.429401 0.587904 0.165000
0.368885 0.615004 0.165000
0.351764 0.722920 0.165000
0.328395 0.835924 0.165000
0.510267 0.901942 0.165000
1.000000 0.968174 0.165000
0.000000 0.023877 0.165000
0.584828 0.094288 0.165000
0.726963 0.186214 0.165000
0.691866 0.354896 0.165000
0.653700 0.467970 0.165000
0.575836 0.485953 0.165000
0.500000 0.500000 0.165000
0.424163 0.514047 0.165000
0.346300 0.532030 0.165000
0.308134 0.645104 0.165000
0.273037 0.813786 0.165000
0.415173 0.905712 0.165000
1.000000 0.976123 0.165000
0.000000 0.031826 0.165000
0.489734 0.098058 0.165000
0.671605 0.164076 0.165000
0.648236 0.277080 0.165000
0.631115 0.384996 0.165000
0.570599 0.412095 0.165000
0.485953 0.424164 0.165000
0.412095 0.429401 0.165000
0.330144 0.489166 0.165000
0.255660 0.568360 0.165000
0.256600 0.784493 0.165000
0.338317 0.911655 0.165000
1.000000 0.981246 0.165000
0.000000 0.041982 0.165000
0.376430 0.099940 0.165000
0.581500 0.159710 0.165000
0.587848 0.258335 0.165000
0.554261 0.310826 0.165000
0.510834 0.330144 0.165000
0.467970 0.346300 0.165000
0.384996 0.368885 0.165000
0.310826 0.445739 0.165000
0.209714 0.544572 0.165000
0.231631 0.780331 0.165000
0.287845 0.920522 0.165000
1.000000 0.984800 0.165000
0.000000 0.055516 0.165000
0.300599 0.117919 0.165000
0.414505 0.151834 0.165000
0.456966 0.175580 0.165000
0.455428 0.209714 0.165000
0.431640 0.255660 0.165000
0.354896 0.308134 0.165000
0.277080 0.351764 0.165000
0.258335 0.412152 0.165000
0.175580 0.543034 0.165000
0.196870 0.784678 0.165000
0.264635 0.935104 0.165000
1.000000 0.986139 0.165000
0.000000 0.105585 0.165000
0.106854 0.098362 0.165000
0.199476 0.151041 0.165000
0.215322 0.196870 0.165000
0.219669 0.231631 0.165000
0.215507 0.256600 0.165000
0.186214 0.273037 0.165000
0.164076 0.328395 0.165000
0.159709 0.418500 0.165000
0.151834 0.585495 0.165000
0.151041 0.800524 0.165000
0.290962 0.957954 0.165000
1.000000 0.984223 0.165000
0.000000 0.498847 0.165000
0.016163 0.388260 0.165000
0.042046 0.290962 0.165000
0.064896 0.264635 0.165000
0.079478 0.287845 0.165000
0.088345 0.338317 0.165000
0.094288 0.415173 0.165000
0.098058 0.510267 0.165000
0.099940 0.623570 0.165000
0.117918 0.699401 0.165000
0.098362 0.893146 0.165000
0.388260 0.983837 0.165000
1.000000 0.991849 0.165000
0.000000 1.000000 0.165000
0.008151 1.000000 0.165000
0.015777 1.000000 0.165000
0.013861 1.000000 0.165000
0.015201 1.000000 0.165000
0.018754 1.000000 0.165000
0.023877 1.000000 0.165000
0.031826 1.000000 0.165000
0.041982 1.000000 0.165000
0.055516 1.000000 0.165000
0.105585 1.000000 0.165000
0.498848 1.000000 0.165000
1.000000 1.000000 0.165000
0.000000 0.000000 0.247500
0.501153 0.000000 0.247500
0.894415 0.000000 0.247500
0.944484 0.000000 0.247500
0.958018 0.000000 0.247500
0.968174 0.000000 0.247500
0.976123 0.000000 0.247500
0.981246 0.000000 0.247500
0.984800 0.000000 0.247500
0.986139 0.000000 0.247500
0.984223 0.000000 0.247500
0.991849 0.000000 0.247500
1.000000 0.000000 0.247500
0.000000 0.008151 0.247500
0.611740 0.016163 0.247500
0.901638 0.106854 0.247500
0.882081 0.300599 0.247500
0.900060 0.376431 0.247500
0.901942 0.489734 0.247500
0.905712 0.584829 0.247500
0.911655 0.661684 0.247500
0.920522 0.712156 0.247500
0.935103 0.735366 0.247500
0.957954 0.709038 0.247500
0.983837 0.611740 0.247500
1.000000 0.501152 0.247500
0.000000 0.015777 0.247500
0.709038 0.042046 0.247500
0.848959 0.199476 0.247500
0.848166 0.414506 0.247500
0.840290 0.581500 0.247500
0.835924 0.671605 0.247500
0.813786 0.726963 0.247500
0.784493 0.743400 0.247500
0.780332 0.768369 0.247500
0.784679 0.803130 0.247500
0.800524 0.848959 0.247500
0.893146 0.901639 0.247500
1.000000 0.894415 0.247500
0.000000 0.013861 0.247500
0.735366 0.064897 0.247500
0.803130 0.215322 0.247500
0.824420 0.456966 0.247500
0.741665 0.587848 0.247500
0.722920 0.648236 0.247500
0.645104 0.691866 0.247500
0.568360 0.744340 0.247500
0.544572 0.790286 0.247500
0.543034 0.824420 0.247500
0.585495 0.848166 0.247500
0.699401 0.882082 0.247500
1.000000 0.944484 0.247500
0.000000 0.015201 0.247500
0.712156 0.079478 0.247500
0.768369 0.219668 0.247500
0.790286 0.455428 0.247500
0.689174 0.554261 0.247500
0.615004 0.631115 0.247500
0.532030 0.653700 0.247500
0.489166 0.669856 0.247500
0.445739 0.689174 0.247500
0.412152 0.741665 0.247500
0.418500 0.840290 0.247500
0.623570 0.900060 0.247500
1.000000 0.958018 0.247500
0.000000 0.018754 0.247500
0.661684 0.088345 0.247500
0.743400 0.215507 0.247500
0.744340 0.431640 0.247500
0.669856 0.510834 0.247500
0.587904 0.570599 0.247500
0.514047 0.575836 0.247500
0.429401 0.587904 0.247500
0.368885 0.615004 0.247500
0.351764 0.722920 0.247500
0.328395 0.835924 0.247500
0.510267 0.901942 0.247500
1.000000 0.968174 0.247500
0.000000 0.023877 0.247500
0.584828 0.094288 0.247500
0.726963 0.186214 0.247500
0.691866 0.354896 0.247500
0.653700 0.467970 0.247500
0.575836 0.485953 0.247500
0.500000 0.500000 0.247500
0.424163 0.514047 0.247500
0.346300 0.532030 0.247500
0.308134 0.645104 0.247500
0.273037 0.813786 0.247500
0.415173 0.905712 0.247500
1.000000 0.976123 0.247500
0.000000 0.031826 0.247500
0.489734 0.098058 0.247500
0.671605 0.164076 0.247500
0.648236 0.277080 0.247500
0.631115 0.384996 0.247500
0.570599 0.412095 0.247500
0.485953 0.424164 0.247500
0.412095 0.429401 0.247500
0.330144 0.489166 0.247500
0.255660 0.568360 0.247500
0.256600 0.784493 0.247500
0.338317 0.911655 0.247500
1.000000 0.981246 0.247500
0.000000 0.041982 0.247500
0.376430 0.099940 0.247500
0.581500 0.159710 0.247500
0.587848 0.258335 0.247500
0.554261 0.310826 0.247500
0.510834 0.330144 0.247500
0.467970 0.346300 0.247500
0.384996 0.368885 0.247500
0.310826 0.445739 0.247500
0.209714 0.544572 0.247500
0.231631 0.780331 0.247500
0.287845 0.920522 0.247500
1.000000 0.984800 0.247500
0.000000 0.055516 0.247500
0.300599 0.117919 0.247500
0.414505 0.151834 0.247500
0.456966 0.175580 0.247500
0.455428 0.209714 0.247500
0.431640 0.255660 0.247500
0.354896 0.308134 0.247500
0.277080 0.351764 0.247500
0.258335 0.412152 0.247500
0.175580 0.543034 0.247500
0.196870 0.784678 0.247500
0.264635 0.935104 0.247500
1.000000 0.986139 0.247500
0.000000 0.105585 0.247500
0.106854 0.098362 0.247500
0.199476 0.151041 0.247500
0.215322 0.196870 0.247500
0.219669 0.231631 0.247500
0.215507 0.256600 0.247500
0.186214 0.273037 0.247500
0.164076 0.328395 0.247500
0.159709 0.418500 0.247500
0.151834 0.585495 0.247500
0.151041 0.800524 0.247500
0.290962 0.957954 0.247500
1.000000 0.984223 0.247500
0.000000 0.498847 0.247500
0.016163 0.388260 0.247500
0.042046 0.290962 0.247500
0.064896 0.264635 0.247500
0.079478 0.287845 0.247500
0.088345 0.338317 0.247500
0.094288 0.415173 0.247500
0.098058 0.510267 0.247500
0.099940 0.623570 0.247500
0.117918 0.699401 0.247500
0.098362 0.893146 0.247500
0.388260 0.983837 0.247500
1.000000 0.991849 0.247500
0.000000 1.000000 0.247500
0.008151 1.000000 0.247500
0.015777 1.000000 0.247500
0.013861 1.000000 0.247500
0.015201 1.000000 0.247500
0.018754 1.000000 0.247500
0.023877 1.000000 0.247500
0.031826 1.000000 0.247500
0.041982 1.000000 0.247500
0.055516 1.000000 0.247500
0.105585 1.000000 0.247500
0.498848 1.000000 0.247500
1.000000 1.000000 0.247500
0.000000 0.000000 0.330000
0.501153 0.000000 0.330000
0.894415 0.000000 0.330000
0.944484 0.000000 0.330000
0.958018 0.000000 0.330000
0.968174 0.000000 0.330000
0.976123 0.000000 0.330000
0.981246 0.000000 0.330000
0.984800 0.000000 0.330000
0.986139 0.000000 0.330000
0.984223 0.000000 0.330000
0.991849 0.000000 0.330000
1.000000 0.000000 0.330000
0.000000 0.008151 0.330000
0.611740 0.016163 0.330000
0.901638 0.106854 0.330000
0.882081 0.300599 0.330000
0.900060 0.376431 0.330000
0.901942 0.489734 0.330000
0.905712 0.584829 0.330000
0.911655 0.661684 0.330000
0.920522 0.712156 0.330000
0.935103 0.735366 0.330000
0.957954 0.709038 0.330000
0.983837 0.611740 0.330000
1.000000 0.501152 0.330000
0.000000 0.015777 0.330000
0.709038 0.042046 0.330000
0.848959 0.199476 0.330000
0.848166 0.414506 0.330000
0.840290 0.581500 0.330000
0.835924 0.671605 0.330000
0.813786 0.726963 0.330000
0.784493 0.743400 0.330000
0.780332 0.768369 0.330000
0.784679 0.803130 0.330000
0.800524 0.848959 0.330000
0.893146 0.901639 0.330000
1.000000 0.894415 0.330000
0.000000 0.013861 0.330000
0.735366 0.064897 0.330000
0.803130 0.215322 0.330000
0.824420 0.456966 0.330000
0.741665 0.587848 0.330000
0.722920 0.648236 0.330000
0.645104 0.691866 0.330000
0.568360 0.744340 0.330000
0.544572 0.790286 0.330000
0.543034 0.824420 0.330000
0.585495 0.848166 0.330000
0.699401 0.882082 0.330000
1.000000 0.944484 0.330000
0.000000 0.015201 0.330000
0.712156 0.079478 0.330000
0.768369 0.219668 0.330000
0.790286 0.455428 0.330000
0.689174 0.554261 0.330000
0.615004 0.631115 0.330000
0.532030 0.653700 0.330000
0.489166 0.669856 0.330000
0.445739 0.689174 0.330000
0.412152 0.741665 0.330000
0.418500 0.840290 0.330000