# vtk DataFile Version 2.0
Mesh for Fierro
ASCII 
DATASET UNSTRUCTURED_GRID

POINTS 845 float
0.000000 0.000000 0.000000
0.359818 0.000000 0.000000
0.583068 0.000000 0.000000
0.701658 0.000000 0.000000
0.780774 0.000000 0.000000
0.830704 0.000000 0.000000
0.869102 0.000000 0.000000
0.900409 0.000000 0.000000
0.924045 0.000000 0.000000
0.945218 0.000000 0.000000
0.963682 0.000000 0.000000
0.982303 0.000000 0.000000
1.000000 0.000000 0.000000
0.000000 0.017697 0.000000
0.354868 0.023349 0.000000
0.575045 0.043273 0.000000
0.691442 0.070725 0.000000
0.766485 0.110788 0.000000
0.814829 0.149590 0.000000
0.852475 0.193833 0.000000
0.881889 0.238841 0.000000
0.906792 0.281609 0.000000
0.930316 0.314714 0.000000
0.953102 0.338552 0.000000
0.976651 0.354868 0.000000
1.000000 0.359818 0.000000
0.000000 0.036318 0.000000
0.338552 0.046898 0.000000
0.552902 0.082622 0.000000
0.666934 0.134050 0.000000
0.735104 0.202849 0.000000
0.782510 0.269471 0.000000
0.812681 0.342659 0.000000
0.837234 0.409039 0.000000
0.858176 0.470957 0.000000
0.885432 0.517719 0.000000
0.917378 0.552902 0.000000
0.956727 0.575045 0.000000
1.000000 0.583068 0.000000
0.000000 0.054782 0.000000
0.314714 0.069684 0.000000
0.517719 0.114568 0.000000
0.625792 0.183155 0.000000
0.685612 0.266961 0.000000
0.723955 0.348064 0.000000
0.742038 0.431401 0.000000
0.761217 0.504442 0.000000
0.779748 0.572151 0.000000
0.816845 0.625792 0.000000
0.865950 0.666934 0.000000
0.929276 0.691442 0.000000
1.000000 0.701658 0.000000
0.000000 0.075955 0.000000
0.281609 0.093208 0.000000
0.470957 0.141824 0.000000
0.572151 0.220252 0.000000
0.626948 0.312831 0.000000
0.652896 0.401186 0.000000
0.659031 0.486165 0.000000
0.672359 0.560243 0.000000
0.687169 0.626948 0.000000
0.733039 0.685612 0.000000
0.797151 0.735104 0.000000
0.889212 0.766485 0.000000
1.000000 0.780774 0.000000
0.000000 0.099591 0.000000
0.238841 0.118111 0.000000
0.409039 0.162766 0.000000
0.504442 0.238783 0.000000
0.560243 0.327641 0.000000
0.578453 0.413966 0.000000
0.580044 0.497986 0.000000
0.586034 0.578453 0.000000
0.598814 0.652896 0.000000
0.651936 0.723955 0.000000
0.730529 0.782510 0.000000
0.850411 0.814829 0.000000
1.000000 0.830704 0.000000
0.000000 0.130898 0.000000
0.193833 0.147525 0.000000
0.342659 0.187319 0.000000
0.431401 0.257962 0.000000
0.486165 0.340969 0.000000
0.497986 0.419956 0.000000
0.500000 0.500000 0.000000
0.502014 0.580044 0.000000
0.513835 0.659031 0.000000
0.568599 0.742038 0.000000
0.657341 0.812681 0.000000
0.806168 0.852475 0.000000
1.000000 0.869103 0.000000
0.000000 0.169296 0.000000
0.149590 0.185171 0.000000
0.269471 0.217490 0.000000
0.348064 0.276045 0.000000
0.401186 0.347104 0.000000
0.413966 0.421547 0.000000
0.419956 0.502014 0.000000
0.421547 0.586034 0.000000
0.439757 0.672359 0.000000
0.495558 0.761217 0.000000
0.590961 0.837234 0.000000
0.761160 0.881889 0.000000
1.000000 0.900409 0.000000
0.000000 0.219226 0.000000
0.110788 0.233515 0.000000
0.202849 0.264896 0.000000
0.266961 0.314388 0.000000
0.312831 0.373052 0.000000
0.327641 0.439757 0.000000
0.340969 0.513835 0.000000
0.347104 0.598814 0.000000
0.373052 0.687169 0.000000
0.427849 0.779748 0.000000
0.529043 0.858176 0.000000
0.718392 0.906792 0.000000
1.000000 0.924045 0.000000
0.000000 0.298342 0.000000
0.070725 0.308558 0.000000
0.134050 0.333066 0.000000
0.183155 0.374208 0.000000
0.220252 0.427849 0.000000
0.238783 0.495558 0.000000
0.257962 0.568599 0.000000
0.276045 0.651936 0.000000
0.314388 0.733039 0.000000
0.374208 0.816845 0.000000
0.482281 0.885432 0.000000
0.685287 0.930316 0.000000
1.000000 0.945219 0.000000
0.000000 0.416932 0.000000
0.043273 0.424955 0.000000
0.082622 0.447098 0.000000
0.114568 0.482281 0.000000
0.141824 0.529043 0.000000
0.162766 0.590961 0.000000
0.187319 0.657341 0.000000
0.217490 0.730529 0.000000
0.264896 0.797151 0.000000
0.333066 0.865950 0.000000
0.447098 0.917378 0.000000
0.661449 0.953102 0.000000
1.000000 0.963682 0.000000
0.000000 0.640183 0.000000
0.023349 0.645133 0.000000
0.046898 0.661449 0.000000
0.069684 0.685287 0.000000
0.093208 0.718392 0.000000
0.118111 0.761160 0.000000
0.147525 0.806168 0.000000
0.185171 0.850411 0.000000
0.233515 0.889212 0.000000
0.308558 0.929276 0.000000
0.424955 0.956727 0.000000
0.645133 0.976651 0.000000
1.000000 0.982303 0.000000
0.000000 1.000000 0.000000
0.017697 1.000000 0.000000
0.036318 1.000000 0.000000
0.054781 1.000000 0.000000
0.075955 1.000000 0.000000
0.099591 1.000000 0.000000
0.130897 1.000000 0.000000
0.169296 1.000000 0.000000
0.219226 1.000000 0.000000
0.298342 1.000000 0.000000
0.416932 1.000000 0.000000
0.640183 1.000000 0.000000
1.000000 1.000000 0.000000
0.000000 0.000000 0.082500
0.359818 0.000000 0.082500
0.583068 0.000000 0.082500
0.701658 0.000000 0.082500
0.780774 0.000000 0.082500
0.830704 0.000000 0.082500
0.869102 0.000000 0.082500
0.900409 0.000000 0.082500
0.924045 0.000000 0.082500
0.945218 0.000000 0.082500
0.963682 0.000000 0.082500
0.982303 0.000000 0.082500
1.000000 0.000000 0.082500
0.000000 0.017697 0.082500
0.354868 0.023349 0.082500
0.575045 0.043273 0.082500
0.691442 0.070725 0.082500
0.766485 0.110788 0.082500
0.814829 0.149590 0.082500
0.852475 0.193833 0.082500
0.881889 0.238841 0.082500
0.906792 0.281609 0.082500
0.930316 0.314714 0.082500
0.953102 0.338552 0.082500
0.976651 0.354868 0.082500
1.000000 0.359818 0.082500
0.000000 0.036318 0.082500
0.338552 0.046898 0.082500
0.552902 0.082622 0.082500
0.666934 0.134050 0.082500
0.735104 0.202849 0.082500
0.782510 0.269471 0.082500
0.812681 0.342659 0.082500
0.837234 0.409039 0.082500
0.858176 0.470957 0.082500
0.885432 0.517719 0.082500
0.917378 0.552902 0.082500
0.956727 0.575045 0.082500
1.000000 0.583068 0.082500
0.000000 0.054782 0.082500
0.314714 0.069684 0.082500
0.517719 0.114568 0.082500
0.625792 0.183155 0.082500
0.685612 0.266961 0.082500
0.723955 0.348064 0.082500
0.742038 0.431401 0.082500
0.761217 0.504442 0.082500
0.779748 0.572151 0.082500
0.816845 0.625792 0.082500
0.865950 0.666934 0.082500
0.929276 0.691442 0.082500
1.000000 0.701658 0.082500
0.000000 0.075955 0.082500
0.281609 0.093208 0.082500
0.470957 0.141824 0.082500
0.572151 0.220252 0.082500
0.626948 0.312831 0.082500
0.652896 0.401186 0.082500
0.659031 0.486165 0.082500
0.672359 0.560243 0.082500
0.687169 0.626948 0.082500
0.733039 0.685612 0.082500
0.797151 0.735104 0.082500
0.889212 0.766485 0.082500
1.000000 0.780774 0.082500
0.000000 0.099591 0.082500
0.238841 0.118111 0.082500
0.409039 0.162766 0.082500
0.504442 0.238783 0.082500
0.560243 0.327641 0.082500
0.578453 0.413966 0.082500
0.580044 0.497986 0.082500
0.586034 0.578453 0.082500
0.598814 0.652896 0.082500
0.651936 0.723955 0.082500
0.730529 0.782510 0.082500
0.850411 0.814829 0.082500
1.000000 0.830704 0.082500
0.000000 0.130898 0.082500
0.193833 0.147525 0.082500
0.342659 0.187319 0.082500
0.431401 0.257962 0.082500
0.486165 0.340969 0.082500
0.497986 0.419956 0.082500
0.500000 0.500000 0.082500
0.502014 0.580044 0.082500
0.513835 0.659031 0.082500
0.568599 0.742038 0.082500
0.657341 0.812681 0.082500
0.806168 0.852475 0.082500
1.000000 0.869103 0.082500
0.000000 0.169296 0.082500
0.149590 0.185171 0.082500
0.269471 0.217490 0.082500
0.348064 0.276045 0.082500
0.401186 0.347104 0.082500
0.413966 0.421547 0.082500
0.419956 0.502014 0.082500
0.421547 0.586034 0.082500
0.439757 0.672359 0.082500
0.495558 0.761217 0.082500
0.590961 0.837234 0.082500
0.761160 0.881889 0.082500
1.000000 0.900409 0.082500
0.000000 0.219226 0.082500
0.110788 0.233515 0.082500
0.202849 0.264896 0.082500
0.266961 0.314388 0.082500
0.312831 0.373052 0.082500
0.327641 0.439757 0.082500
0.340969 0.513835 0.082500
0.347104 0.598814 0.082500
0.373052 0.687169 0.082500
0.427849 0.779748 0.082500
0.529043 0.858176 0.082500
0.718392 0.906792 0.082500
1.000000 0.924045 0.082500
0.000000 0.298342 0.082500
0.070725 0.308558 0.082500
0.134050 0.333066 0.082500
0.183155 0.374208 0.082500
0.220252 0.427849 0.082500
0.238783 0.495558 0.082500
0.257962 0.568599 0.082500
0.276045 0.651936 0.082500
0.314388 0.733039 0.082500
0.374208 0.816845 0.082500
0.482281 0.885432 0.082500
0.685287 0.930316 0.082500
1.000000 0.945219 0.082500
0.000000 0.416932 0.082500
0.043273 0.424955 0.082500
0.082622 0.447098 0.082500
0.114568 0.482281 0.082500
0.141824 0.529043 0.082500
0.162766 0.590961 0.082500
0.187319 0.657341 0.082500
0.217490 0.730529 0.082500
0.264896 0.797151 0.082500
0.333066 0.865950 0.082500
0.447098 0.917378 0.082500
0.661449 0.953102 0.082500
1.000000 0.963682 0.082500
0.000000 0.640183 0.082500
0.023349 0.645133 0.082500
0.046898 0.661449 0.082500
0.069684 0.685287 0.082500
0.093208 0.718392 0.082500
0.118111 0.761160 0.082500
0.147525 0.806168 0.082500
0.185171 0.850411 0.082500
0.233515 0.889212 0.082500
0.308558 0.929276 0.082500
0.424955 0.956727 0.082500
0.645133 0.976651 0.082500
1.000000 0.982303 0.082500
0.000000 1.000000 0.082500
0.017697 1.000000 0.082500
0.036318 1.000000 0.082500
0.054781 1.000000 0.082500
0.075955 1.000000 0.082500
0.099591 1.000000 0.082500
0.130897 1.000000 0.082500
0.169296 1.000000 0.082500
0.219226 1.000000 0.082500
0.298342 1.000000 0.082500
0.416932 1.000000 0.082500
0.640183 1.000000 0.082500
1.000000 1.000000 0.082500
0.000000 0.000000 0.165000
0.359818 0.000000 0.165000
0.583068 0.000000 0.165000
0.701658 0.000000 0.165000
0.780774 0.000000 0.165000
0.830704 0.000000 0.165000
0.869102 0.000000 0.165000
0.900409 0.000000 0.165000
0.924045 0.000000 0.165000
0.945218 0.000000 0.165000
0.963682 0.000000 0.165000
0.982303 0.000000 0.165000
1.000000 0.000000 0.165000
0.000000 0.017697 0.165000
0.354868 0.023349 0.165000
0.575045 0.043273 0.165000
0.691442 0.070725 0.165000
0.766485 0.110788 0.165000
0.814829 0.149590 0.165000
0.852475 0.193833 0.165000
0.881889 0.238841 0.165000
0.906792 0.281609 0.165000
0.930316 0.314714 0.165000
0.953102 0.338552 0.165000
0.976651 0.354868 0.165000
1.000000 0.359818 0.165000
0.000000 0.036318 0.165000
0.338552 0.046898 0.165000
[...]
POINT_DATA 845 
VECTORS pos float 
0.000000 0.000000 0.000000
0.359818 0.000000 0.000000
0.583068 0.000000 0.000000
0.701658 0.000000 0.000000
0.780774 0.000000 0.000000
0.830704 0.000000 0.000000
0.869102 0.000000 0.000000
0.900409 0.000000 0.000000
0.924045 0.000000 0.000000
0.945218 0.000000 0.000000
0.963682 0.000000 0.000000
0.982303 0.000000 0.000000
1.000000 0.000000 0.000000
0.000000 0.017697 0.000000
0.354868 0.023349 0.000000
0.575045 0.043273 0.000000
0.691442 0.070725 0.000000
0.766485 0.110788 0.000000
0.814829 0.149590 0.000000
0.852475 0.193833 0.000000
0.881889 0.238841 0.000000
0.906792 0.281609 0.000000
0.930316 0.314714 0.000000
0.953102 0.338552 0.000000
0.976651 0.354868 0.000000
1.000000 0.359818 0.000000
0.000000 0.036318 0.000000
0.338552 0.046898 0.000000
0.552902 0.082622 0.000000
0.666934 0.134050 0.000000
0.735104 0.202849 0.000000
0.782510 0.269471 0.000000
0.812681 0.342659 0.000000
0.837234 0.409039 0.000000
0.858176 0.470957 0.000000
0.885432 0.517719 0.000000
0.917378 0.552902 0.000000
0.956727 0.575045 0.000000
1.000000 0.583068 0.000000
0.000000 0.054782 0.000000
0.314714 0.069684 0.000000
0.517719 0.114568 0.000000
0.625792 0.183155 0.000000
0.685612 0.266961 0.000000
0.723955 0.348064 0.000000
0.742038 0.431401 0.000000
0.761217 0.504442 0.000000
0.779748 0.572151 0.000000
0.816845 0.625792 0.000000
0.865950 0.666934 0.000000
0.929276 0.691442 0.000000
1.000000 0.701658 0.000000
0.000000 0.075955 0.000000
0.281609 0.093208 0.000000
0.470957 0.141824 0.000000
0.572151 0.220252 0.000000
0.626948 0.312831 0.000000
0.652896 0.401186 0.000000
0.659031 0.486165 0.000000
0.672359 0.560243 0.000000
0.687169 0.626948 0.000000
0.733039 0.685612 0.000000
0.797151 0.735104 0.000000
0.889212 0.766485 0.000000
1.000000 0.780774 0.000000
0.000000 0.099591 0.000000
0.238841 0.118111 0.000000
0.409039 0.162766 0.000000
0.504442 0.238783 0.000000
0.560243 0.327641 0.000000
0.578453 0.413966 0.000000
0.580044 0.497986 0.000000
0.586034 0.578453 0.000000
0.598814 0.652896 0.000000
0.651936 0.723955 0.000000
0.730529 0.782510 0.000000
0.850411 0.814829 0.000000
1.000000 0.830704 0.000000
0.000000 0.130898 0.000000
0.193833 0.147525 0.000000
0.342659 0.187319 0.000000
0.431401 0.257962 0.000000
0.486165 0.340969 0.000000
0.497986 0.419956 0.000000
0.500000 0.500000 0.000000
0.502014 0.580044 0.000000
0.513835 0.659031 0.000000
0.568599 0.742038 0.000000
0.657341 0.812681 0.000000
0.806168 0.852475 0.000000
1.000000 0.869103 0.000000
0.000000 0.169296 0.000000
0.149590 0.185171 0.000000
0.269471 0.217490 0.000000
0.348064 0.276045 0.000000
0.401186 0.347104 0.000000
0.413966 0.421547 0.000000
0.419956 0.502014 0.000000
0.421547 0.586034 0.000000
0.439757 0.672359 0.000000
0.495558 0.761217 0.000000
0.590961 0.837234 0.000000
0.761160 0.881889 0.000000
1.000000 0.900409 0.000000
0.000000 0.219226 0.000000
0.110788 0.233515 0.000000
0.202849 0.264896 0.000000
0.266961 0.314388 0.000000
0.312831 0.373052 0.000000
0.327641 0.439757 0.000000
0.340969 0.513835 0.000000
0.347104 0.598814 0.000000
0.373052 0.687169 0.000000
0.427849 0.779748 0.000000
0.529043 0.858176 0.000000
0.718392 0.906792 0.000000
1.000000 0.924045 0.000000
0.000000 0.298342 0.000000
0.070725 0.308558 0.000000
0.134050 0.333066 0.000000
0.183155 0.374208 0.000000
0.220252 0.427849 0.000000
0.238783 0.495558 0.000000
0.257962 0.568599 0.000000
0.276045 0.651936 0.000000
0.314388 0.733039 0.000000
0.374208 0.816845 0.000000
0.482281 0.885432 0.000000
0.685287 0.930316 0.000000
1.000000 0.945219 0.000000
0.000000 0.416932 0.000000
0.043273 0.424955 0.000000
0.082622 0.447098 0.000000
0.114568 0.482281 0.000000
0.141824 0.529043 0.000000
0.162766 0.590961 0.000000
0.187319 0.657341 0.000000
0.217490 0.730529 0.000000
0.264896 0.797151 0.000000
0.333066 0.865950 0.000000
0.447098 0.917378 0.000000
0.661449 0.953102 0.000000
1.000000 0.963682 0.000000
0.000000 0.640183 0.000000
0.023349 0.645133 0.000000
0.046898 0.661449 0.000000
0.069684 0.685287 0.000000
0.093208 0.718392 0.000000
0.118111 0.761160 0.000000
0.147525 0.806168 0.000000
0.185171 0.850411 0.000000
0.233515 0.889212 0.000000
0.308558 0.929276 0.000000
0.424955 0.956727 0.000000
0.645133 0.976651 0.000000
1.000000 0.982303 0.000000
0.000000 1.000000 0.000000
0.017697 1.000000 0.000000
0.036318 1.000000 0.000000
0.054781 1.000000 0.000000
0.075955 1.000000 0.000000
0.099591 1.000000 0.000000
0.130897 1.000000 0.000000
0.169296 1.000000 0.000000
0.219226 1.000000 0.000000
0.298342 1.000000 0.000000
0.416932 1.000000 0.000000
0.640183 1.000000 0.000000
1.000000 1.000000 0.000000
0.000000 0.000000 0.082500
0.359818 0.000000 0.082500
0.583068 0.000000 0.082500
0.701658 0.000000 0.082500
0.780774 0.000000 0.082500
0.830704 0.000000 0.082500
0.869102 0.000000 0.082500
0.900409 0.000000 0.082500
0.924045 0.000000 0.082500
0.945218 0.000000 0.082500
0.963682 0.000000 0.082500
0.982303 0.000000 0.082500
1.000000 0.000000 0.082500
0.000000 0.017697 0.082500
0.354868 0.023349 0.082500
0.575045 0.043273 0.082500
0.691442 0.070725 0.082500
0.766485 0.110788 0.082500
0.814829 0.149590 0.082500
0.852475 0.193833 0.082500
0.881889 0.238841 0.082500
0.906792 0.281609 0.082500
0.930316 0.314714 0.082500
0.953102 0.338552 0.082500
0.976651 0.354868 0.082500
1.000000 0.359818 0.082500
0.000000 0.036318 0.082500
0.338552 0.046898 0.082500
0.552902 0.082622 0.082500
0.666934 0.134050 0.082500
0.735104 0.202849 0.082500
0.782510 0.269471 0.082500
0.812681 0.342659 0.082500
0.837234 0.409039 0.082500
0.858176 0.470957 0.082500
0.885432 0.517719 0.082500
0.917378 0.552902 0.082500
0.956727 0.575045 0.082500
1.000000 0.583068 0.082500
0.000000 0.054782 0.082500
0.314714 0.069684 0.082500
0.517719 0.114568 0.082500
0.625792 0.183155 0.082500
0.685612 0.266961 0.082500
0.723955 0.348064 0.082500
0.742038 0.431401 0.082500
0.761217 0.504442 0.082500
0.779748 0.572151 0.082500
0.816845 0.625792 0.082500
0.865950 0.666934 0.082500
0.929276 0.691442 0.082500
1.000000 0.701658 0.082500
0.000000 0.075955 0.082500
0.281609 0.093208 0.082500
0.470957 0.141824 0.082500
0.572151 0.220252 0.082500
0.626948 0.312831 0.082500
0.652896 0.401186 0.082500
0.659031 0.486165 0.082500
0.672359 0.560243 0.082500
0.687169 0.626948 0.082500
0.733039 0.685612 0.082500
0.797151 0.735104 0.082500
0.889212 0.766485 0.082500
1.000000 0.780774 0.082500
0.000000 0.099591 0.082500
0.238841 0.118111 0.082500
0.409039 0.162766 0.082500
0.504442 0.238783 0.082500
0.560243 0.327641 0.082500
0.578453 0.413966 0.082500
0.580044 0.497986 0.082500
0.586034 0.578453 0.082500
0.598814 0.652896 0.082500
0.651936 0.723955 0.082500
0.730529 0.782510 0.082500
0.850411 0.814829 0.082500
1.000000 0.830704 0.082500
0.000000 0.130898 0.082500
0.193833 0.147525 0.082500
0.342659 0.187319 0.082500
0.431401 0.257962 0.082500
0.486165 0.340969 0.082500
0.497986 0.419956 0.082500
0.500000 0.500000 0.082500
0.502014 0.580044 0.082500
0.513835 0.659031 0.082500
0.568599 0.742038 0.082500
0.657341 0.812681 0.082500
0.806168 0.852475 0.082500
1.000000 0.869103 0.082500
0.000000 0.169296 0.082500
0.149590 0.185171 0.082500
0.269471 0.217490 0.082500
0.348064 0.276045 0.082500
0.401186 0.347104 0.082500
0.413966 0.421547 0.082500
0.419956 0.502014 0.082500
0.421547 0.586034 0.082500
0.439757 0.672359 0.082500
0.495558 0.761217 0.082500
0.590961 0.837234 0.082500
0.761160 0.881889 0.082500
1.000000 0.900409 0.082500
0.000000 0.219226 0.082500
0.110788 0.233515 0.082500
0.202849 0.264896 0.082500
0.266961 0.314388 0.082500
0.312831 0.373052 0.082500
0.327641 0.439757 0.082500
0.340969 0.513835 0.082500
0.347104 0.598814 0.082500
0.373052 0.687169 0.082500
0.427849 0.779748 0.082500
0.529043 0.858176 0.082500
0.718392 0.906792 0.082500
1.000000 0.924045 0.082500
0.000000 0.298342 0.082500
0.070725 0.308558 0.082500
0.134050 0.333066 0.082500
0.183155 0.374208 0.082500
0.220252 0.427849 0.082500
0.238783 0.495558 0.082500
0.257962 0.568599 0.082500
0.276045 0.651936 0.082500
0.314388 0.733039 0.082500
0.374208 0.816845 0.082500
0.482281 0.885432 0.082500
0.685287 0.930316 0.082500
1.000000 0.945219 0.082500
0.000000 0.416932 0.082500
0.043273 0.424955 0.082500
0.082622 0.447098 0.082500
0.114568 0.482281 0.082500
0.141824 0.529043 0.082500
0.162766 0.590961 0.082500
0.187319 0.657341 0.082500
0.217490 0.730529 0.082500
0.264896 0.797151 0.082500
0.333066 0.865950 0.082500
0.447098 0.917378 0.082500
0.661449 0.953102 0.082500
1.000000 0.963682 0.082500
0.000000 0.640183 0.082500
0.023349 0.645133 0.082500
0.046898 0.661449 0.082500
0.069684 0.685287 0.082500
0.093208 0.718392 0.082500
0.118111 0.761160 0.082500
0.147525 0.806168 0.082500
0.185171 0.850411 0.082500
0.233515 0.889212 0.082500
0.308558 0.929276 0.082500
0.424955 0.956727 0.082500
0.645133 0.976651 0.082500
1.000000 0.982303 0.082500
0.000000 1.000000 0.082500
0.017697 1.000000 0.082500
0.036318 1.000000 0.082500
0.054781 1.000000 0.082500
0.075955 1.000000 0.082500
0.099591 1.000000 0.082500
0.130897 1.000000 0.082500
0.169296 1.000000 0.082500
0.219226 1.000000 0.082500
0.298342 1.000000 0.082500
0.416932 1.000000 0.082500
0.640183 1.000000 0.082500
1.000000 1.000000 0.082500
0.000000 0.000000 0.165000
0.359818 0.000000 0.165000
0.583068 0.000000 0.165000
0.701658 0.000000 0.165000
0.780774 0.000000 0.165000
0.830704 0.000000 0.165000
0.869102 0.000000 0.165000
0.900409 0.000000 0.165000
0.924045 0.000000 0.165000
0.945218 0.000000 0.165000
0.963682 0.000000 0.165000
0.982303 0.000000 0.165000
1.000000 0.000000 0.165000
0.000000 0.017697 0.165000
0.354868 0.023349 0.165000
0.575045 0.043273 0.165000
0.691442 0.070725 0.165000
0.766485 0.110788 0.165000
0.814829 0.149590 0.165000
0.852475 0.193833 0.165000
0.881889 0.238841 0.165000
0.906792 0.281609 0.165000
0.930316 0.314714 0.165000
0.953102 0.338552 0.165000
0.976651 0.354868 0.165000
1.000000 0.359818 0.165000
0.000000 0.036318 0.165000
0.338552 0.046898 0.165000
0.552902 0.082622 0.165000
0.666934 0.134050 0.165000
0.735104 0.202849 0.165000
0.782510 0.269471 0.165000
0.812681 0.342659 0.165000
0.837234 0.409039 0.165000
0.858176 0.470957 0.165000
0.885432 0.517719 0.165000
0.917378 0.552902 0.165000
0.956727 0.575045 0.165000
1.000000 0.583068 0.165000
0.000000 0.054782 0.165000
0.314714 0.069684 0.165000
0.517719 0.114568 0.165000
0.625792 0.183155 0.165000
0.685612 0.266961 0.165000
0.723955 0.348064 0.165000
0.742038 0.431401 0.165000
0.761217 0.504442 0.165000
0.779748 0.572151 0.165000
0.816845 0.625792 0.165000
0.865950 0.666934 0.165000
0.929276 0.691442 0.165000
1.000000 0.701658 0.165000
0.000000 0.075955 0.165000
0.281609 0.093208 0.165000
0.470957 0.141824 0.165000
0.572151 0.220252 0.165000
0.626948 0.312831 0.165000
0.652896 0.401186 0.165000
0.659031 0.486165 0.165000
0.672359 0.560243 0.165000
0.687169 0.626948 0.165000
0.733039 0.685612 0.165000
0.797151 0.735104 0.165000
0.889212 0.766485 0.165000
1.000000 0.780774 0.165000
0.000000 0.099591 0.165000
0.238841 0.118111 0.165000
0.409039 0.162766 0.165000
0.504442 0.238783 0.165000
0.560243 0.327641 0.165000
0.578453 0.413966 0.165000
0.580044 0.497986 0.165000
0.586034 0.578453 0.165000
0.598814 0.652896 0.165000
0.651936 0.723955 0.165000
0.730529 0.782510 0.165000
0.850411 0.814829 0.165000
1.000000 0.830704 0.165000
0.000000 0.130898 0.165000
0.193833 0.147525 0.165000
0.342659 0.187319 0.165000
0.431401 0.257962 0.165000
0.486165 0.340969 0.165000
0.497986 0.419956 0.165000
0.500000 0.500000 0.165000
0.502014 0.580044 0.165000
0.513835 0.659031 0.165000
0.568599 0.742038 0.165000
0.657341 0.812681 0.165000
0.806168 0.852475 0.165000
1.000000 0.869103 0.165000
0.000000 0.169296 0.165000
0.149590 0.185171 0.165000
0.269471 0.217490 0.165000
0.348064 0.276045 0.165000
0.401186 0.347104 0.165000
0.413966 0.421547 0.165000
0.419956 0.502014 0.165000
0.421547 0.586034 0.165000
0.439757 0.672359 0.165000
0.495558 0.761217 0.165000
0.590961 0.837234 0.165000
0.761160 0.881889 0.165000
1.000000 0.900409 0.165000
0.000000 0.219226 0.165000
0.110788 0.233515 0.165000
0.202849 0.264896 0.165000
0.266961 0.314388 0.165000
0.312831 0.373052 0.165000
0.327641 0.439757 0.165000
0.340969 0.513835 0.165000
0.347104 0.598814 0.165000
0.373052 0.687169 0.165000
0.427849 0.779748 0.165000
0.529043 0.858176 0.165000
0.718392 0.906792 0.165000
1.000000 0.924045 0.165000
0.000000 0.298342 0.165000
0.070725 0.308558 0.165000
0.134050 0.333066 0.165000
0.183155 0.374208 0.165000
0.220252 0.427849 0.165000
0.238783 0.495558 0.165000
0.257962 0.568599 0.165000
0.276045 0.651936 0.165000
0.314388 0.733039 0.165000
0.374208 0.816845 0.165000
0.482281 0.885432 0.165000
0.685287 0.930316 0.165000
1.000000 0.945219 0.165000
0.000000 0.416932 0.165000
0.043273 0.424955 0.165000
0.082622 0.447098 0.165000
0.114568 0.482281 0.165000
0.141824 0.529043 0.165000
0.162766 0.590961 0.165000
0.187319 0.657341 0.165000
0.217490 0.730529 0.165000
0.264896 0.797151 0.165000
0.333066 0.865950 0.165000
0.447098 0.917378 0.165000
0.661449 0.953102 0.165000
1.000000 0.963682 0.165000
0.000000 0.640183 0.165000
0.023349 0.645133 0.165000
0.046898 0.661449 0.165000
0.069684 0.685287 0.165000
0.093208 0.718392 0.165000
0.118111 0.761160 0.165000
0.147525 0.806168 0.165000
0.185171 0.850411 0.165000
0.233515 0.889212 0.165000
0.308558 0.929276 0.165000
0.424955 0.956727 0.165000
0.645133 0.976651 0.165000
1.000000 0.982303 0.165000
0.000000 1.000000 0.165000
0.017697 1.000000 0.165000
0.036318 1.000000 0.165000
0.054781 1.000000 0.165000
0.075955 1.000000 0.165000
0.099591 1.000000 0.165000
0.130897 1.000000 0.165000
0.169296 1.000000 0.165000
0.219226 1.000000 0.165000
0.298342 1.000000 0.165000
0.416932 1.000000 0.165000
0.640183 1.000000 0.165000
1.000000 1.000000 0.165000
0.000000 0.000000 0.247500
0.359818 0.000000 0.247500
0.583068 0.000000 0.247500
0.701658 0.000000 0.247500
0.780774 0.000000 0.247500
0.830704 0.000000 0.247500
0.869102 0.000000 0.247500
0.900409 0.000000 0.247500
0.924045 0.000000 0.247500
0.945218 0.000000 0.247500
0.963682 0.000000 0.247500
0.982303 0.000000 0.247500
1.000000 0.000000 0.247500
0.000000 0.017697 0.247500
0.354868 0.023349 0.247500
0.575045 0.043273 0.247500
0.691442 0.070725 0.247500
0.766485 0.110788 0.247500
0.814829 0.149590 0.247500
0.852475 0.193833 0.247500
0.881889 0.238841 0.247500
0.906792 0.281609 0.247500
0.930316 0.314714 0.247500
0.953102 0.338552 0.247500
0.976651 0.354868 0.247500
1.000000 0.359818 0.247500
0.000000 0.036318 0.247500
0.338552 0.046898 0.247500
0.552902 0.082622 0.247500
0.666934 0.134050 0.247500
0.735104 0.202849 0.247500
0.782510 0.269471 0.247500
0.812681 0.342659 0.247500
0.837234 0.409039 0.247500
0.858176 0.470957 0.247500
0.885432 0.517719 0.247500
0.917378 0.552902 0.247500
0.956727 0.575045 0.247500
1.000000 0.583068 0.247500
0.000000 0.054782 0.247500
0.314714 0.069684 0.247500
0.517719 0.114568 0.247500
0.625792 0.183155 0.247500
0.685612 0.266961 0.247500
0.723955 0.348064 0.247500
0.742038 0.431401 0.247500
0.761217 0.504442 0.247500
0.779748 0.572151 0.247500
0.816845 0.625792 0.247500
0.865950 0.666934 0.247500
0.929276 0.691442 0.247500
1.000000 0.701658 0.247500
0.000000 0.075955 0.247500
0.281609 0.093208 0.247500
0.470957 0.141824 0.247500
0.572151 0.220252 0.247500
0.626948 0.312831 0.247500
0.652896 0.401186 0.247500
0.659031 0.486165 0.247500
0.672359 0.560243 0.247500
0.687169 0.626948 0.247500
0.733039 0.685612 0.247500
0.797151 0.735104 0.247500
0.889212 0.766485 0.247500
1.000000 0.780774 0.247500
0.000000 0.099591 0.247500
0.238841 0.118111 0.247500
0.409039 0.162766 0.247500
0.504442 0.238783 0.247500
0.560243 0.327641 0.247500
0.578453 0.413966 0.247500
0.580044 0.497986 0.247500
0.586034 0.578453 0.247500
0.598814 0.652896 0.247500
0.651936 0.723955 0.247500
0.730529 0.782510 0.247500
0.850411 0.814829 0.247500
1.000000 0.830704 0.247500
0.000000 0.130898 0.247500
0.193833 0.147525 0.247500
0.342659 0.187319 0.247500
0.431401 0.257962 0.247500
0.486165 0.340969 0.247500
0.497986 0.419956 0.247500
0.500000 0.500000 0.247500
0.502014 0.580044 0.247500
0.513835 0.659031 0.247500
0.568599 0.742038 0.247500
0.657341 0.812681 0.247500
0.806168 0.852475 0.247500
1.000000 0.869103 0.247500
0.000000 0.169296 0.247500
0.149590 0.185171 0.247500
0.269471 0.217490 0.247500
0.348064 0.276045 0.247500
0.401186 0.347104 0.247500
0.413966 0.421547 0.247500
0.419956 0.502014 0.247500
0.421547 0.586034 0.247500
0.439757 0.672359 0.247500
0.495558 0.761217 0.247500
0.590961 0.837234 0.247500
0.761160 0.881889 0.247500
1.000000 0.900409 0.247500
0.000000 0.219226 0.247500
0.110788 0.233515 0.247500
0.202849 0.264896 0.247500
0.266961 0.314388 0.247500
0.312831 0.373052 0.247500
0.327641 0.439757 0.247500
0.340969 0.513835 0.247500
0.347104 0.598814 0.247500
0.373052 0.687169 0.247500
0.427849 0.779748 0.247500
0.529043 0.858176 0.247500
0.718392 0.906792 0.247500
1.000000 0.924045 0.247500
0.000000 0.298342 0.247500
0.070725 0.308558 0.247500
0.134050 0.333066 0.247500
0.183155 0.374208 0.247500
0.220252 0.427849 0.247500
0.238783 0.495558 0.247500
0.257962 0.568599 0.247500
0.276045 0.651936 0.247500
0.314388 0.733039 0.247500
0.374208 0.816845 0.247500
0.482281 0.885432 0.247500
0.685287 0.930316 0.247500
1.000000 0.945219 0.247500
0.000000 0.416932 0.247500
0.043273 0.424955 0.247500
0.082622 0.447098 0.247500
0.114568 0.482281 0.247500
0.141824 0.529043 0.247500
0.162766 0.590961 0.247500
0.187319 0.657341 0.247500
0.217490 0.730529 0.247500
0.264896 0.797151 0.247500
0.333066 0.865950 0.247500
0.447098 0.917378 0.247500
0.661449 0.953102 0.247500
1.000000 0.963682 0.247500
0.000000 0.640183 0.247500
0.023349 0.645133 0.247500
0.046898 0.661449 0.247500
0.069684 0.685287 0.247500
0.093208 0.718392 0.247500
0.118111 0.761160 0.247500
0.147525 0.806168 0.247500
0.185171 0.850411 0.247500
0.233515 0.889212 0.247500
0.308558 0.929276 0.247500
0.424955 0.956727 0.247500
0.645133 0.976651 0.247500
1.000000 0.982303 0.247500
0.000000 1.000000 0.247500
0.017697 1.000000 0.247500
0.036318 1.000000 0.247500
0.054781 1.000000 0.247500
0.075955 1.000000 0.247500
0.099591 1.000000 0.247500
0.130897 1.000000 0.247500
0.169296 1.000000 0.247500
0.219226 1.000000 0.247500
0.298342 1.000000 0.247500
0.416932 1.000000 0.247500
0.640183 1.000000 0.247500
1.000000 1.000000 0.247500
0.000000 0.000000 0.330000
0.359818 0.000000 0.330000
0.583068 0.000000 0.330000
0.701658 0.000000 0.330000
0.780774 0.000000 0.330000
0.830704 0.000000 0.330000
0.869102 0.000000 0.330000
0.900409 0.000000 0.330000
0.924045 0.000000 0.330000
0.945218 0.000000 0.330000
0.963682 0.000000 0.330000
0.982303 0.000000 0.330000
1.000000 0.000000 0.330000
0.000000 0.017697 0.330000
0.354868 0.023349 0.330000
0.575045 0.043273 0.330000
0.691442 0.070725 0.330000
0.766485 0.110788 0.330000
0.814829 0.149590 0.330000
0.852475 0.193833 0.330000
0.881889 0.238841 0.330000
0.906792 0.281609 0.330000
0.930316 0.314714 0.330000
0.953102 0.338552 0.330000
0.976651 0.354868 0.330000
1.000000 0.359818 0.330000
0.000000 0.036318 0.330000
0.338552 0.046898 0.330000
0.552902 0.082622 0.330000
0.666934 0.134050 0.330000
0.735104 0.202849 0.330000
0.782510 0.269471 0.330000
0.812681 0.342659 0.330000
0.837234 0.409039 0.330000
0.858176 0.470957 0.330000
0.885432 0.517719 0.330000
0.917378 0.552902 0.330000
0.956727 0.575045 0.330000
1.000000 0.583068 0.330000
0.000000 0.054782 0.330000
0.314714 0.069684 0.330000
0.517719 0.114568 0.330000
0.625792 0.183155 0.330000
0.685612 0.266961 0.330000
0.723955 0.348064 0.330000
0.742038 0.431401 0.330000
0.761217 0.504442 0.330000
0.779748 0.572151 0.330000
0.816845 0.625792 0.330000
0.865950 0.666934 0.330000
0.929276 0.691442 0.330000
1.000000 0.701658 0.330000
0.000000 0.075955 0.330000
0.281609 0.093208 0.330000
0.470957 0.141824 0.330000
0.572151 0.220252 0.330000
0.626948 0.312831 0.330000
0.652896 0.401186 0.330000
0.659031 0.486165 0.330000
0.672359 0.560243 0.330000
0.687169 0.626948 0.330000
0.733039 0.685612 0.330000
0.797151 0.735104 0.330000