# vtk DataFile Version 2.0
Mesh for Fierro
ASCII 
DATASET UNSTRUCTURED_GRID

POINTS 845 float
0.000000 0.000000 0.000000
0.514230 0.000000 0.000000
0.757701 0.000000 0.000000
0.827190 0.000000 0.000000
0.877739 0.000000 0.000000
0.906808 0.000000 0.000000
0.927965 0.000000 0.000000
0.944994 0.000000 0.000000
0.957939 0.000000 0.000000
0.968616 0.000000 0.000000
0.978187 0.000000 0.000000
0.988691 0.000000 0.000000
1.000000 0.000000 0.000000
0.000000 0.011309 0.000000
0.511148 0.019271 0.000000
0.738803 0.062443 0.000000
0.811595 0.108059 0.000000
0.857175 0.179160 0.000000
0.882136 0.244132 0.000000
0.900678 0.311159 0.000000
0.915721 0.376574 0.000000
0.929357 0.432957 0.000000
0.945204 0.472113 0.000000
0.961990 0.498200 0.000000
0.980729 0.511148 0.000000
1.000000 0.514230 0.000000
0.000000 0.021813 0.000000
0.498200 0.038010 0.000000
0.708292 0.112383 0.000000
0.788798 0.193720 0.000000
0.815670 0.312309 0.000000
0.836439 0.400545 0.000000
0.841777 0.489698 0.000000
0.842094 0.560407 0.000000
0.842219 0.620143 0.000000
0.858020 0.668009 0.000000
0.887617 0.708292 0.000000
0.937557 0.738803 0.000000
1.000000 0.757701 0.000000
0.000000 0.031384 0.000000
0.472113 0.054796 0.000000
0.668009 0.141980 0.000000
0.745753 0.244522 0.000000
0.752511 0.368944 0.000000
0.763365 0.463383 0.000000
0.744731 0.551232 0.000000
0.732259 0.624681 0.000000
0.727060 0.690964 0.000000
0.755478 0.745753 0.000000
0.806280 0.788798 0.000000
0.891941 0.811595 0.000000
1.000000 0.827190 0.000000
0.000000 0.042061 0.000000
0.432957 0.070643 0.000000
0.620143 0.157781 0.000000
0.690964 0.272940 0.000000
0.688412 0.393407 0.000000
0.681280 0.490370 0.000000
0.643763 0.566895 0.000000
0.624901 0.633022 0.000000
0.606593 0.688412 0.000000
0.631056 0.752511 0.000000
0.687691 0.815670 0.000000
0.820841 0.857175 0.000000
1.000000 0.877739 0.000000
0.000000 0.055006 0.000000
0.376574 0.084279 0.000000
0.560407 0.157906 0.000000
0.624681 0.267741 0.000000
0.633022 0.375099 0.000000
0.611431 0.466165 0.000000
0.569189 0.539273 0.000000
0.533835 0.611431 0.000000
0.509630 0.681280 0.000000
0.536617 0.763365 0.000000
0.599455 0.836439 0.000000
0.755869 0.882137 0.000000
1.000000 0.906808 0.000000
0.000000 0.072035 0.000000
0.311159 0.099322 0.000000
0.489698 0.158223 0.000000
0.551232 0.255269 0.000000
0.566895 0.356237 0.000000
0.539273 0.430811 0.000000
0.500000 0.500000 0.000000
0.460727 0.569189 0.000000
0.433105 0.643763 0.000000
0.448768 0.744731 0.000000
0.510302 0.841777 0.000000
0.688842 0.900678 0.000000
1.000000 0.927965 0.000000
0.000000 0.093192 0.000000
0.244132 0.117864 0.000000
0.400545 0.163561 0.000000
0.463383 0.236635 0.000000
0.490370 0.318720 0.000000
0.466165 0.388569 0.000000
0.430811 0.460727 0.000000
0.388569 0.533835 0.000000
0.366978 0.624901 0.000000
0.375319 0.732259 0.000000
0.439593 0.842094 0.000000
0.623427 0.915721 0.000000
1.000000 0.944994 0.000000
0.000000 0.122261 0.000000
0.179160 0.142825 0.000000
0.312309 0.184330 0.000000
0.368944 0.247489 0.000000
0.393407 0.311588 0.000000
0.375099 0.366978 0.000000
0.356237 0.433105 0.000000
0.318720 0.509630 0.000000
0.311588 0.606593 0.000000
0.309036 0.727059 0.000000
0.379857 0.842219 0.000000
0.567044 0.929357 0.000000
1.000000 0.957939 0.000000
0.000000 0.172810 0.000000
0.108059 0.188405 0.000000
0.193720 0.211202 0.000000
0.244522 0.254247 0.000000
0.272941 0.309036 0.000000
0.267741 0.375319 0.000000
0.255269 0.448768 0.000000
0.236635 0.536617 0.000000
0.247489 0.631056 0.000000
0.254247 0.755478 0.000000
0.331991 0.858020 0.000000
0.527888 0.945205 0.000000
1.000000 0.968616 0.000000
0.000000 0.242299 0.000000
0.062443 0.261197 0.000000
0.112383 0.291708 0.000000
0.141980 0.331991 0.000000
0.157781 0.379857 0.000000
0.157906 0.439593 0.000000
0.158223 0.510302 0.000000
0.163561 0.599455 0.000000
0.184330 0.687691 0.000000
0.211202 0.806280 0.000000
0.291708 0.887617 0.000000
0.501801 0.961990 0.000000
1.000000 0.978187 0.000000
0.000000 0.485770 0.000000
0.019271 0.488852 0.000000
0.038010 0.501801 0.000000
0.054795 0.527888 0.000000
0.070643 0.567044 0.000000
0.084279 0.623427 0.000000
0.099322 0.688842 0.000000
0.117863 0.755869 0.000000
0.142825 0.820841 0.000000
0.188405 0.891942 0.000000
0.261197 0.937557 0.000000
0.488852 0.980729 0.000000
1.000000 0.988691 0.000000
0.000000 1.000000 0.000000
0.011309 1.000000 0.000000
0.021813 1.000000 0.000000
0.031384 1.000000 0.000000
0.042061 1.000000 0.000000
0.055006 1.000000 0.000000
0.072035 1.000000 0.000000
0.093192 1.000000 0.000000
0.122261 1.000000 0.000000
0.172810 1.000000 0.000000
0.242299 1.000000 0.000000
0.485770 1.000000 0.000000
1.000000 1.000000 0.000000
0.000000 0.000000 0.082500
0.514230 0.000000 0.082500
0.757701 0.000000 0.082500
0.827190 0.000000 0.082500
0.877739 0.000000 0.082500
0.906808 0.000000 0.082500
0.927965 0.000000 0.082500
0.944994 0.000000 0.082500
0.957939 0.000000 0.082500
0.968616 0.000000 0.082500
0.978187 0.000000 0.082500
0.988691 0.000000 0.082500
1.000000 0.000000 0.082500
0.000000 0.011309 0.082500
0.511148 0.019271 0.082500
0.738803 0.062443 0.082500
0.811595 0.108059 0.082500
0.857175 0.179160 0.082500
0.882136 0.244132 0.082500
0.900678 0.311159 0.082500
0.915721 0.376574 0.082500
0.929357 0.432957 0.082500
0.945204 0.472113 0.082500
0.961990 0.498200 0.082500
0.980729 0.511148 0.082500
1.000000 0.514230 0.082500
0.000000 0.021813 0.082500
0.498200 0.038010 0.082500
0.708292 0.112383 0.082500
0.788798 0.193720 0.082500
0.815670 0.312309 0.082500
0.836439 0.400545 0.082500
0.841777 0.489698 0.082500
0.842094 0.560407 0.082500
0.842219 0.620143 0.082500
0.858020 0.668009 0.082500
0.887617 0.708292 0.082500
0.937557 0.738803 0.082500
1.000000 0.757701 0.082500
0.000000 0.031384 0.082500
0.472113 0.054796 0.082500
0.668009 0.141980 0.082500
0.745753 0.244522 0.082500
0.752511 0.368944 0.082500
0.763365 0.463383 0.082500
0.744731 0.551232 0.082500
0.732259 0.624681 0.082500
0.727060 0.690964 0.082500
0.755478 0.745753 0.082500
0.806280 0.788798 0.082500
0.891941 0.811595 0.082500
1.000000 0.827190 0.082500
0.000000 0.042061 0.082500
0.432957 0.070643 0.082500
0.620143 0.157781 0.082500
0.690964 0.272940 0.082500
0.688412 0.393407 0.082500
0.681280 0.490370 0.082500
0.643763 0.566895 0.082500
0.624901 0.633022 0.082500
0.606593 0.688412 0.082500
0.631056 0.752511 0.082500
0.687691 0.815670 0.082500
0.820841 0.857175 0.082500
1.000000 0.877739 0.082500
0.000000 0.055006 0.082500
0.376574 0.084279 0.082500
0.560407 0.157906 0.082500
0.624681 0.267741 0.082500
0.633022 0.375099 0.082500
0.611431 0.466165 0.082500
0.569189 0.539273 0.082500
0.533835 0.611431 0.082500
0.509630 0.681280 0.082500
0.536617 0.763365 0.082500
0.599455 0.836439 0.082500
0.755869 0.882137 0.082500
1.000000 0.906808 0.082500
0.000000 0.072035 0.082500
0.311159 0.099322 0.082500
0.489698 0.158223 0.082500
0.551232 0.255269 0.082500
0.566895 0.356237 0.082500
0.539273 0.430811 0.082500
0.500000 0.500000 0.082500
0.460727 0.569189 0.082500
0.433105 0.643763 0.082500
0.448768 0.744731 0.082500
0.510302 0.841777 0.082500
0.688842 0.900678 0.082500
1.000000 0.927965 0.082500
0.000000 0.093192 0.082500
0.244132 0.117864 0.082500
0.400545 0.163561 0.082500
0.463383 0.236635 0.082500
0.490370 0.318720 0.082500
0.466165 0.388569 0.082500
0.430811 0.460727 0.082500
0.388569 0.533835 0.082500
0.366978 0.624901 0.082500
0.375319 0.732259 0.082500
0.439593 0.842094 0.082500
0.623427 0.915721 0.082500
1.000000 0.944994 0.082500
0.000000 0.122261 0.082500
0.179160 0.142825 0.082500
0.312309 0.184330 0.082500
0.368944 0.247489 0.082500
0.393407 0.311588 0.082500
0.375099 0.366978 0.082500
0.356237 0.433105 0.082500
0.318720 0.509630 0.082500
0.311588 0.606593 0.082500
0.309036 0.727059 0.082500
0.379857 0.842219 0.082500
0.567044 0.929357 0.082500
1.000000 0.957939 0.082500
0.000000 0.172810 0.082500
0.108059 0.188405 0.082500
0.193720 0.211202 0.082500
0.244522 0.254247 0.082500
0.272941 0.309036 0.082500
0.267741 0.375319 0.082500
0.255269 0.448768 0.082500
0.236635 0.536617 0.082500
0.247489 0.631056 0.082500
0.254247 0.755478 0.082500
0.331991 0.858020 0.082500
0.527888 0.945205 0.082500
1.000000 0.968616 0.082500
0.000000 0.242299 0.082500
0.062443 0.261197 0.082500
0.112383 0.291708 0.082500
0.141980 0.331991 0.082500
0.157781 0.379857 0.082500
0.157906 0.439593 0.082500
0.158223 0.510302 0.082500
0.163561 0.599455 0.082500
0.184330 0.687691 0.082500
0.211202 0.806280 0.082500
0.291708 0.887617 0.082500
0.501801 0.961990 0.082500
1.000000 0.978187 0.082500
0.000000 0.485770 0.082500
0.019271 0.488852 0.082500
0.038010 0.501801 0.082500
0.054795 0.527888 0.082500
0.070643 0.567044 0.082500
0.084279 0.623427 0.082500
0.099322 0.688842 0.082500
0.117863 0.755869 0.082500
0.142825 0.820841 0.082500
0.188405 0.891942 0.082500
0.261197 0.937557 0.082500
0.488852 0.980729 0.082500
1.000000 0.988691 0.082500
0.000000 1.000000 0.082500
0.011309 1.000000 0.082500
0.021813 1.000000 0.082500
0.031384 1.000000 0.082500
0.042061 1.000000 0.082500
0.055006 1.000000 0.082500
0.072035 1.000000 0.082500
0.093192 1.000000 0.082500
0.122261 1.000000 0.082500
0.172810 1.000000 0.082500
0.242299 1.000000 0.082500
0.485770 1.000000 0.082500
1.000000 1.000000 0.082500
0.000000 0.000000 0.165000
0.514230 0.000000 0.165000
0.757701 0.000000 0.165000
0.827190 0.000000 0.165000
0.877739 0.000000 0.165000
0.906808 0.000000 0.165000
0.927965 0.000000 0.165000
0.944994 0.000000 0.165000
0.957939 0.000000 0.165000
0.968616 0.000000 0.165000
0.978187 0.000000 0.165000
0.988691 0.000000 0.165000
1.000000 0.000000 0.165000
0.000000 0.011309 0.165000
0.511148 0.019271 0.165000
0.738803 0.062443 0.165000
0.811595 0.108059 0.165000
0.857175 0.179160 0.165000
0.882136 0.244132 0.165000
0.900678 0.311159 0.165000
0.915721 0.376574 0.165000
0.929357 0.432957 0.165000
0.945204 0.472113 0.165000
0.961990 0.498200 0.165000
0.980729 0.511148 0.165000
1.000000 0.514230 0.165000
0.000000 0.021813 0.165000
0.498200 0.038010 0.165000
[...]
POINT_DATA 845 
VECTORS pos float 
0.000000 0.000000 0.000000
0.514230 0.000000 0.000000
0.757701 0.000000 0.000000
0.827190 0.000000 0.000000
0.877739 0.000000 0.000000
0.906808 0.000000 0.000000
0.927965 0.000000 0.000000
0.944994 0.000000 0.000000
0.957939 0.000000 0.000000
0.968616 0.000000 0.000000
0.978187 0.000000 0.000000
0.988691 0.000000 0.000000
1.000000 0.000000 0.000000
0.000000 0.011309 0.000000
0.511148 0.019271 0.000000
0.738803 0.062443 0.000000
0.811595 0.108059 0.000000
0.857175 0.179160 0.000000
0.882136 0.244132 0.000000
0.900678 0.311159 0.000000
0.915721 0.376574 0.000000
0.929357 0.432957 0.000000
0.945204 0.472113 0.000000
0.961990 0.498200 0.000000
0.980729 0.511148 0.000000
1.000000 0.514230 0.000000
0.000000 0.021813 0.000000
0.498200 0.038010 0.000000
0.708292 0.112383 0.000000
0.788798 0.193720 0.000000
0.815670 0.312309 0.000000
0.836439 0.400545 0.000000
0.841777 0.489698 0.000000
0.842094 0.560407 0.000000
0.842219 0.620143 0.000000
0.858020 0.668009 0.000000
0.887617 0.708292 0.000000
0.937557 0.738803 0.000000
1.000000 0.757701 0.000000
0.000000 0.031384 0.000000
0.472113 0.054796 0.000000
0.668009 0.141980 0.000000
0.745753 0.244522 0.000000
0.752511 0.368944 0.000000
0.763365 0.463383 0.000000
0.744731 0.551232 0.000000
0.732259 0.624681 0.000000
0.727060 0.690964 0.000000
0.755478 0.745753 0.000000
0.806280 0.788798 0.000000
0.891941 0.811595 0.000000
1.000000 0.827190 0.000000
0.000000 0.042061 0.000000
0.432957 0.070643 0.000000
0.620143 0.157781 0.000000
0.690964 0.272940 0.000000
0.688412 0.393407 0.000000
0.681280 0.490370 0.000000
0.643763 0.566895 0.000000
0.624901 0.633022 0.000000
0.606593 0.688412 0.000000
0.631056 0.752511 0.000000
0.687691 0.815670 0.000000
0.820841 0.857175 0.000000
1.000000 0.877739 0.000000
0.000000 0.055006 0.000000
0.376574 0.084279 0.000000
0.560407 0.157906 0.000000
0.624681 0.267741 0.000000
0.633022 0.375099 0.000000
0.611431 0.466165 0.000000
0.569189 0.539273 0.000000
0.533835 0.611431 0.000000
0.509630 0.681280 0.000000
0.536617 0.763365 0.000000
0.599455 0.836439 0.000000
0.755869 0.882137 0.000000
1.000000 0.906808 0.000000
0.000000 0.072035 0.000000
0.311159 0.099322 0.000000
0.489698 0.158223 0.000000
0.551232 0.255269 0.000000
0.566895 0.356237 0.000000
0.539273 0.430811 0.000000
0.500000 0.500000 0.000000
0.460727 0.569189 0.000000
0.433105 0.643763 0.000000
0.448768 0.744731 0.000000
0.510302 0.841777 0.000000
0.688842 0.900678 0.000000
1.000000 0.927965 0.000000
0.000000 0.093192 0.000000
0.244132 0.117864 0.000000
0.400545 0.163561 0.000000
0.463383 0.236635 0.000000
0.490370 0.318720 0.000000
0.466165 0.388569 0.000000
0.430811 0.460727 0.000000
0.388569 0.533835 0.000000
0.366978 0.624901 0.000000
0.375319 0.732259 0.000000
0.439593 0.842094 0.000000
0.623427 0.915721 0.000000
1.000000 0.944994 0.000000
0.000000 0.122261 0.000000
0.179160 0.142825 0.000000
0.312309 0.184330 0.000000
0.368944 0.247489 0.000000
0.393407 0.311588 0.000000
0.375099 0.366978 0.000000
0.356237 0.433105 0.000000
0.318720 0.509630 0.000000
0.311588 0.606593 0.000000
0.309036 0.727059 0.000000
0.379857 0.842219 0.000000
0.567044 0.929357 0.000000
1.000000 0.957939 0.000000
0.000000 0.172810 0.000000
0.108059 0.188405 0.000000
0.193720 0.211202 0.000000
0.244522 0.254247 0.000000
0.272941 0.309036 0.000000
0.267741 0.375319 0.000000
0.255269 0.448768 0.000000
0.236635 0.536617 0.000000
0.247489 0.631056 0.000000
0.254247 0.755478 0.000000
0.331991 0.858020 0.000000
0.527888 0.945205 0.000000
1.000000 0.968616 0.000000
0.000000 0.242299 0.000000
0.062443 0.261197 0.000000
0.112383 0.291708 0.000000
0.141980 0.331991 0.000000
0.157781 0.379857 0.000000
0.157906 0.439593 0.000000
0.158223 0.510302 0.000000
0.163561 0.599455 0.000000
0.184330 0.687691 0.000000
0.211202 0.806280 0.000000
0.291708 0.887617 0.000000
0.501801 0.961990 0.000000
1.000000 0.978187 0.000000
0.000000 0.485770 0.000000
0.019271 0.488852 0.000000
0.038010 0.501801 0.000000
0.054795 0.527888 0.000000
0.070643 0.567044 0.000000
0.084279 0.623427 0.000000
0.099322 0.688842 0.000000
0.117863 0.755869 0.000000
0.142825 0.820841 0.000000
0.188405 0.891942 0.000000
0.261197 0.937557 0.000000
0.488852 0.980729 0.000000
1.000000 0.988691 0.000000
0.000000 1.000000 0.000000
0.011309 1.000000 0.000000
0.021813 1.000000 0.000000
0.031384 1.000000 0.000000
0.042061 1.000000 0.000000
0.055006 1.000000 0.000000
0.072035 1.000000 0.000000
0.093192 1.000000 0.000000
0.122261 1.000000 0.000000
0.172810 1.000000 0.000000
0.242299 1.000000 0.000000
0.485770 1.000000 0.000000
1.000000 1.000000 0.000000
0.000000 0.000000 0.082500
0.514230 0.000000 0.082500
0.757701 0.000000 0.082500
0.827190 0.000000 0.082500
0.877739 0.000000 0.082500
0.906808 0.000000 0.082500
0.927965 0.000000 0.082500
0.944994 0.000000 0.082500
0.957939 0.000000 0.082500
0.968616 0.000000 0.082500
0.978187 0.000000 0.082500
0.988691 0.000000 0.082500
1.000000 0.000000 0.082500
0.000000 0.011309 0.082500
0.511148 0.019271 0.082500
0.738803 0.062443 0.082500
0.811595 0.108059 0.082500
0.857175 0.179160 0.082500
0.882136 0.244132 0.082500
0.900678 0.311159 0.082500
0.915721 0.376574 0.082500
0.929357 0.432957 0.082500
0.945204 0.472113 0.082500
0.961990 0.498200 0.082500
0.980729 0.511148 0.082500
1.000000 0.514230 0.082500
0.000000 0.021813 0.082500
0.498200 0.038010 0.082500
0.708292 0.112383 0.082500
0.788798 0.193720 0.082500
0.815670 0.312309 0.082500
0.836439 0.400545 0.082500
0.841777 0.489698 0.082500
0.842094 0.560407 0.082500
0.842219 0.620143 0.082500
0.858020 0.668009 0.082500
0.887617 0.708292 0.082500
0.937557 0.738803 0.082500
1.000000 0.757701 0.082500
0.000000 0.031384 0.082500
0.472113 0.054796 0.082500
0.668009 0.141980 0.082500
0.745753 0.244522 0.082500
0.752511 0.368944 0.082500
0.763365 0.463383 0.082500
0.744731 0.551232 0.082500
0.732259 0.624681 0.082500
0.727060 0.690964 0.082500
0.755478 0.745753 0.082500
0.806280 0.788798 0.082500
0.891941 0.811595 0.082500
1.000000 0.827190 0.082500
0.000000 0.042061 0.082500
0.432957 0.070643 0.082500
0.620143 0.157781 0.082500
0.690964 0.272940 0.082500
0.688412 0.393407 0.082500
0.681280 0.490370 0.082500
0.643763 0.566895 0.082500
0.624901 0.633022 0.082500
0.606593 0.688412 0.082500
0.631056 0.752511 0.082500
0.687691 0.815670 0.082500
0.820841 0.857175 0.082500
1.000000 0.877739 0.082500
0.000000 0.055006 0.082500
0.376574 0.084279 0.082500
0.560407 0.157906 0.082500
0.624681 0.267741 0.082500
0.633022 0.375099 0.082500
0.611431 0.466165 0.082500
0.569189 0.539273 0.082500
0.533835 0.611431 0.082500
0.509630 0.681280 0.082500
0.536617 0.763365 0.082500
0.599455 0.836439 0.082500
0.755869 0.882137 0.082500
1.000000 0.906808 0.082500
0.000000 0.072035 0.082500
0.311159 0.099322 0.082500
0.489698 0.158223 0.082500
0.551232 0.255269 0.082500
0.566895 0.356237 0.082500
0.539273 0.430811 0.082500
0.500000 0.500000 0.082500
0.460727 0.569189 0.082500
0.433105 0.643763 0.082500
0.448768 0.744731 0.082500
0.510302 0.841777 0.082500
0.688842 0.900678 0.082500
1.000000 0.927965 0.082500
0.000000 0.093192 0.082500
0.244132 0.117864 0.082500
0.400545 0.163561 0.082500
0.463383 0.236635 0.082500
0.490370 0.318720 0.082500
0.466165 0.388569 0.082500
0.430811 0.460727 0.082500
0.388569 0.533835 0.082500
0.366978 0.624901 0.082500
0.375319 0.732259 0.082500
0.439593 0.842094 0.082500
0.623427 0.915721 0.082500
1.000000 0.944994 0.082500
0.000000 0.122261 0.082500
0.179160 0.142825 0.082500
0.312309 0.184330 0.082500
0.368944 0.247489 0.082500
0.393407 0.311588 0.082500
0.375099 0.366978 0.082500
0.356237 0.433105 0.082500
0.318720 0.509630 0.082500
0.311588 0.606593 0.082500
0.309036 0.727059 0.082500
0.379857 0.842219 0.082500
0.567044 0.929357 0.082500
1.000000 0.957939 0.082500
0.000000 0.172810 0.082500
0.108059 0.188405 0.082500
0.193720 0.211202 0.082500
0.244522 0.254247 0.082500
0.272941 0.309036 0.082500
0.267741 0.375319 0.082500
0.255269 0.448768 0.082500
0.236635 0.536617 0.082500
0.247489 0.631056 0.082500
0.254247 0.755478 0.082500
0.331991 0.858020 0.082500
0.527888 0.945205 0.082500
1.000000 0.968616 0.082500
0.000000 0.242299 0.082500
0.062443 0.261197 0.082500
0.112383 0.291708 0.082500
0.141980 0.331991 0.082500
0.157781 0.379857 0.082500
0.157906 0.439593 0.082500
0.158223 0.510302 0.082500
0.163561 0.599455 0.082500
0.184330 0.687691 0.082500
0.211202 0.806280 0.082500
0.291708 0.887617 0.082500
0.501801 0.961990 0.082500
1.000000 0.978187 0.082500
0.000000 0.485770 0.082500
0.019271 0.488852 0.082500
0.038010 0.501801 0.082500
0.054795 0.527888 0.082500
0.070643 0.567044 0.082500
0.084279 0.623427 0.082500
0.099322 0.688842 0.082500
0.117863 0.755869 0.082500
0.142825 0.820841 0.082500
0.188405 0.891942 0.082500
0.261197 0.937557 0.082500
0.488852 0.980729 0.082500
1.000000 0.988691 0.082500
0.000000 1.000000 0.082500
0.011309 1.000000 0.082500
0.021813 1.000000 0.082500
0.031384 1.000000 0.082500
0.042061 1.000000 0.082500
0.055006 1.000000 0.082500
0.072035 1.000000 0.082500
0.093192 1.000000 0.082500
0.122261 1.000000 0.082500
0.172810 1.000000 0.082500
0.242299 1.000000 0.082500
0.485770 1.000000 0.082500
1.000000 1.000000 0.082500
0.000000 0.000000 0.165000
0.514230 0.000000 0.165000
0.757701 0.000000 0.165000
0.827190 0.000000 0.165000
0.877739 0.000000 0.165000
0.906808 0.000000 0.165000
0.927965 0.000000 0.165000
0.944994 0.000000 0.165000
0.957939 0.000000 0.165000
0.968616 0.000000 0.165000
0.978187 0.000000 0.165000
0.988691 0.000000 0.165000
1.000000 0.000000 0.165000
0.000000 0.011309 0.165000
0.511148 0.019271 0.165000
0.738803 0.062443 0.165000
0.811595 0.108059 0.165000
0.857175 0.179160 0.165000
0.882136 0.244132 0.165000
0.900678 0.311159 0.165000
0.915721 0.376574 0.165000
0.929357 0.432957 0.165000
0.945204 0.472113 0.165000
0.961990 0.498200 0.165000
0.980729 0.511148 0.165000
1.000000 0.514230 0.165000
0.000000 0.021813 0.165000
0.498200 0.038010 0.165000
0.708292 0.112383 0.165000
0.788798 0.193720 0.165000
0.815670 0.312309 0.165000
0.836439 0.400545 0.165000
0.841777 0.489698 0.165000
0.842094 0.560407 0.165000
0.842219 0.620143 0.165000
0.858020 0.668009 0.165000
0.887617 0.708292 0.165000
0.937557 0.738803 0.165000
1.000000 0.757701 0.165000
0.000000 0.031384 0.165000
0.472113 0.054796 0.165000
0.668009 0.141980 0.165000
0.745753 0.244522 0.165000
0.752511 0.368944 0.165000
0.763365 0.463383 0.165000
0.744731 0.551232 0.165000
0.732259 0.624681 0.165000
0.727060 0.690964 0.165000
0.755478 0.745753 0.165000
0.806280 0.788798 0.165000
0.891941 0.811595 0.165000
1.000000 0.827190 0.165000
0.000000 0.042061 0.165000
0.432957 0.070643 0.165000
0.620143 0.157781 0.165000
0.690964 0.272940 0.165000
0.688412 0.393407 0.165000
0.681280 0.490370 0.165000
0.643763 0.566895 0.165000
0.624901 0.633022 0.165000
0.606593 0.688412 0.165000
0.631056 0.752511 0.165000
0.687691 0.815670 0.165000
0.820841 0.857175 0.165000
1.000000 0.877739 0.165000
0.000000 0.055006 0.165000
0.376574 0.084279 0.165000
0.560407 0.157906 0.165000
0.624681 0.267741 0.165000
0.633022 0.375099 0.165000
0.611431 0.466165 0.165000
0.569189 0.539273 0.165000
0.533835 0.611431 0.165000
0.509630 0.681280 0.165000
0.536617 0.763365 0.165000
0.599455 0.836439 0.165000
0.755869 0.882137 0.165000
1.000000 0.906808 0.165000
0.000000 0.072035 0.165000
0.311159 0.099322 0.165000
0.489698 0.158223 0.165000
0.551232 0.255269 0.165000
0.566895 0.356237 0.165000
0.539273 0.430811 0.165000
0.500000 0.500000 0.165000
0.460727 0.569189 0.165000
0.433105 0.643763 0.165000
0.448768 0.744731 0.165000
0.510302 0.841777 0.165000
0.688842 0.900678 0.165000
1.000000 0.927965 0.165000
0.000000 0.093192 0.165000
0.244132 0.117864 0.165000
0.400545 0.163561 0.165000
0.463383 0.236635 0.165000
0.490370 0.318720 0.165000
0.466165 0.388569 0.165000
0.430811 0.460727 0.165000
0.388569 0.533835 0.165000
0.366978 0.624901 0.165000
0.375319 0.732259 0.165000
0.439593 0.842094 0.165000
0.623427 0.915721 0.165000
1.000000 0.944994 0.165000
0.000000 0.122261 0.165000
0.179160 0.142825 0.165000
0.312309 0.184330 0.165000
0.368944 0.247489 0.165000
0.393407 0.311588 0.165000
0.375099 0.366978 0.165000
0.356237 0.433105 0.165000
0.318720 0.509630 0.165000
0.311588 0.606593 0.165000
0.309036 0.727059 0.165000
0.379857 0.842219 0.165000
0.567044 0.929357 0.165000
1.000000 0.957939 0.165000
0.000000 0.172810 0.165000
0.108059 0.188405 0.165000
0.193720 0.211202 0.165000
0.244522 0.254247 0.165000
0.272941 0.309036 0.165000
0.267741 0.375319 0.165000
0.255269 0.448768 0.165000
0.236635 0.536617 0.165000
0.247489 0.631056 0.165000
0.254247 0.755478 0.165000
0.331991 0.858020 0.165000
0.527888 0.945205 0.165000
1.000000 0.968616 0.165000
0.000000 0.242299 0.165000
0.062443 0.261197 0.165000
0.112383 0.291708 0.165000
0.141980 0.331991 0.165000
0.157781 0.379857 0.165000
0.157906 0.439593 0.165000
0.158223 0.510302 0.165000
0.163561 0.599455 0.165000
0.184330 0.687691 0.165000
0.211202 0.806280 0.165000
0.291708 0.887617 0.165000
0.501801 0.961990 0.165000
1.000000 0.978187 0.165000
0.000000 0.485770 0.165000
0.019271 0.488852 0.165000
0.038010 0.501801 0.165000
0.054795 0.527888 0.165000
0.070643 0.567044 0.165000
0.084279 0.623427 0.165000
0.099322 0.688842 0.165000
0.117863 0.755869 0.165000
0.142825 0.820841 0.165000
0.188405 0.891942 0.165000
0.261197 0.937557 0.165000
0.488852 0.980729 0.165000
1.000000 0.988691 0.165000
0.000000 1.000000 0.165000
0.011309 1.000000 0.165000
0.021813 1.000000 0.165000
0.031384 1.000000 0.165000
0.042061 1.000000 0.165000
0.055006 1.000000 0.165000
0.072035 1.000000 0.165000
0.093192 1.000000 0.165000
0.122261 1.000000 0.165000
0.172810 1.000000 0.165000
0.242299 1.000000 0.165000
0.485770 1.000000 0.165000
1.000000 1.000000 0.165000
0.000000 0.000000 0.247500
0.514230 0.000000 0.247500
0.757701 0.000000 0.247500
0.827190 0.000000 0.247500
0.877739 0.000000 0.247500
0.906808 0.000000 0.247500
0.927965 0.000000 0.247500
0.944994 0.000000 0.247500
0.957939 0.000000 0.247500
0.968616 0.000000 0.247500
0.978187 0.000000 0.247500
0.988691 0.000000 0.247500
1.000000 0.000000 0.247500
0.000000 0.011309 0.247500
0.511148 0.019271 0.247500
0.738803 0.062443 0.247500
0.811595 0.108059 0.247500
0.857175 0.179160 0.247500
0.882136 0.244132 0.247500
0.900678 0.311159 0.247500
0.915721 0.376574 0.247500
0.929357 0.432957 0.247500
0.945204 0.472113 0.247500
0.961990 0.498200 0.247500
0.980729 0.511148 0.247500
1.000000 0.514230 0.247500
0.000000 0.021813 0.247500
0.498200 0.038010 0.247500
0.708292 0.112383 0.247500
0.788798 0.193720 0.247500
0.815670 0.312309 0.247500
0.836439 0.400545 0.247500
0.841777 0.489698 0.247500
0.842094 0.560407 0.247500
0.842219 0.620143 0.247500
0.858020 0.668009 0.247500
0.887617 0.708292 0.247500
0.937557 0.738803 0.247500
1.000000 0.757701 0.247500
0.000000 0.031384 0.247500
0.472113 0.054796 0.247500
0.668009 0.141980 0.247500
0.745753 0.244522 0.247500
0.752511 0.368944 0.247500
0.763365 0.463383 0.247500
0.744731 0.551232 0.247500
0.732259 0.624681 0.247500
0.727060 0.690964 0.247500
0.755478 0.745753 0.247500
0.806280 0.788798 0.247500
0.891941 0.811595 0.247500
1.000000 0.827190 0.247500
0.000000 0.042061 0.247500
0.432957 0.070643 0.247500
0.620143 0.157781 0.247500
0.690964 0.272940 0.247500
0.688412 0.393407 0.247500
0.681280 0.490370 0.247500
0.643763 0.566895 0.247500
0.624901 0.633022 0.247500
0.606593 0.688412 0.247500
0.631056 0.752511 0.247500
0.687691 0.815670 0.247500
0.820841 0.857175 0.247500
1.000000 0.877739 0.247500
0.000000 0.055006 0.247500
0.376574 0.084279 0.247500
0.560407 0.157906 0.247500
0.624681 0.267741 0.247500
0.633022 0.375099 0.247500
0.611431 0.466165 0.247500
0.569189 0.539273 0.247500
0.533835 0.611431 0.247500
0.509630 0.681280 0.247500
0.536617 0.763365 0.247500
0.599455 0.836439 0.247500
0.755869 0.882137 0.247500
1.000000 0.906808 0.247500
0.000000 0.072035 0.247500
0.311159 0.099322 0.247500
0.489698 0.158223 0.247500
0.551232 0.255269 0.247500
0.566895 0.356237 0.247500
0.539273 0.430811 0.247500
0.500000 0.500000 0.247500
0.460727 0.569189 0.247500
0.433105 0.643763 0.247500
0.448768 0.744731 0.247500
0.510302 0.841777 0.247500
0.688842 0.900678 0.247500
1.000000 0.927965 0.247500
0.000000 0.093192 0.247500
0.244132 0.117864 0.247500
0.400545 0.163561 0.247500
0.463383 0.236635 0.247500
0.490370 0.318720 0.247500
0.466165 0.388569 0.247500
0.430811 0.460727 0.247500
0.388569 0.533835 0.247500
0.366978 0.624901 0.247500
0.375319 0.732259 0.247500
0.439593 0.842094 0.247500
0.623427 0.915721 0.247500
1.000000 0.944994 0.247500
0.000000 0.122261 0.247500
0.179160 0.142825 0.247500
0.312309 0.184330 0.247500
0.368944 0.247489 0.247500
0.393407 0.311588 0.247500
0.375099 0.366978 0.247500
0.356237 0.433105 0.247500
0.318720 0.509630 0.247500
0.311588 0.606593 0.247500
0.309036 0.727059 0.247500
0.379857 0.842219 0.247500
0.567044 0.929357 0.247500
1.000000 0.957939 0.247500
0.000000 0.172810 0.247500
0.108059 0.188405 0.247500
0.193720 0.211202 0.247500
0.244522 0.254247 0.247500
0.272941 0.309036 0.247500
0.267741 0.375319 0.247500
0.255269 0.448768 0.247500
0.236635 0.536617 0.247500
0.247489 0.631056 0.247500
0.254247 0.755478 0.247500
0.331991 0.858020 0.247500
0.527888 0.945205 0.247500
1.000000 0.968616 0.247500
0.000000 0.242299 0.247500
0.062443 0.261197 0.247500
0.112383 0.291708 0.247500
0.141980 0.331991 0.247500
0.157781 0.379857 0.247500
0.157906 0.439593 0.247500
0.158223 0.510302 0.247500
0.163561 0.599455 0.247500
0.184330 0.687691 0.247500
0.211202 0.806280 0.247500
0.291708 0.887617 0.247500
0.501801 0.961990 0.247500
1.000000 0.978187 0.247500
0.000000 0.485770 0.247500
0.019271 0.488852 0.247500
0.038010 0.501801 0.247500
0.054795 0.527888 0.247500
0.070643 0.567044 0.247500
0.084279 0.623427 0.247500
0.099322 0.688842 0.247500
0.117863 0.755869 0.247500
0.142825 0.820841 0.247500
0.188405 0.891942 0.247500
0.261197 0.937557 0.247500
0.488852 0.980729 0.247500
1.000000 0.988691 0.247500
0.000000 1.000000 0.247500
0.011309 1.000000 0.247500
0.021813 1.000000 0.247500
0.031384 1.000000 0.247500
0.042061 1.000000 0.247500
0.055006 1.000000 0.247500
0.072035 1.000000 0.247500
0.093192 1.000000 0.247500
0.122261 1.000000 0.247500
0.172810 1.000000 0.247500
0.242299 1.000000 0.247500
0.485770 1.000000 0.247500
1.000000 1.000000 0.247500
0.000000 0.000000 0.330000
0.514230 0.000000 0.330000
0.757701 0.000000 0.330000
0.827190 0.000000 0.330000
0.877739 0.000000 0.330000
0.906808 0.000000 0.330000
0.927965 0.000000 0.330000
0.944994 0.000000 0.330000
0.957939 0.000000 0.330000
0.968616 0.000000 0.330000
0.978187 0.000000 0.330000
0.988691 0.000000 0.330000
1.000000 0.000000 0.330000
0.000000 0.011309 0.330000
0.511148 0.019271 0.330000
0.738803 0.062443 0.330000
0.811595 0.108059 0.330000
0.857175 0.179160 0.330000
0.882136 0.244132 0.330000
0.900678 0.311159 0.330000
0.915721 0.376574 0.330000
0.929357 0.432957 0.330000
0.945204 0.472113 0.330000
0.961990 0.498200 0.330000
0.980729 0.511148 0.330000
1.000000 0.514230 0.330000
0.000000 0.021813 0.330000
0.498200 0.038010 0.330000
0.708292 0.112383 0.330000
0.788798 0.193720 0.330000
0.815670 0.312309 0.330000
0.836439 0.400545 0.330000
0.841777 0.489698 0.330000
0.842094 0.560407 0.330000
0.842219 0.620143 0.330000
0.858020 0.668009 0.330000
0.887617 0.708292 0.330000
0.937557 0.738803 0.330000
1.000000 0.757701 0.330000
0.000000 0.031384 0.330000
0.472113 0.054796 0.330000
0.668009 0.141980 0.330000
0.745753 0.244522 0.330000
0.752511 0.368944 0.330000
0.763365 0.463383 0.330000
0.744731 0.551232 0.330000
0.732259 0.624681 0.330000
0.727060 0.690964 0.330000
0.755478 0.745753 0.330000
0.806280 0.788798 0.330000
0.891941 0.811595 0.330000
1.000000 0.827190 0.330000
0.000000 0.042061 0.330000
0.432957 0.070643 0.330000
0.620143 0.157781 0.330000
0.690964 0.272940 0.330000
0.688412 0.393407 0.330000
0.681280 0.490370 0.330000
0.643763 0.566895 0.330000
0.624901 0.633022 0.330000
0.606593 0.688412 0.330000
0.631056 0.752511 0.330000
0.687691 0.815670 0.330000