# vtk DataFile Version 2.0
Mesh for Fierro
ASCII 
DATASET UNSTRUCTURED_GRID

POINTS 845 float
0.000000 0.000000 0.000000
0.176217 0.000000 0.000000
0.333862 0.000000 0.000000
0.467439 0.000000 0.000000
0.573196 0.000000 0.000000
0.657969 0.000000 0.000000
0.728955 0.000000 0.000000
0.787642 0.000000 0.000000
0.836244 0.000000 0.000000
0.881920 0.000000 0.000000
0.921482 0.000000 0.000000
0.962823 0.000000 0.000000
1.000000 0.000000 0.000000
0.000000 0.037177 0.000000
0.174065 0.040914 0.000000
0.330241 0.048226 0.000000
0.461319 0.059593 0.000000
0.566667 0.073443 0.000000
0.650068 0.089555 0.000000
0.720217 0.106859 0.000000
0.778521 0.124018 0.000000
0.827709 0.141286 0.000000
0.873726 0.155846 0.000000
0.915930 0.166699 0.000000
0.959086 0.174065 0.000000
1.000000 0.176217 0.000000
0.000000 0.078518 0.000000
0.166699 0.084070 0.000000
0.317248 0.096278 0.000000
0.443754 0.118160 0.000000
0.546250 0.144254 0.000000
0.627004 0.174472 0.000000
0.695532 0.206621 0.000000
0.754237 0.238501 0.000000
0.806535 0.270525 0.000000
0.855758 0.296905 0.000000
0.903722 0.317248 0.000000
0.951774 0.330241 0.000000
1.000000 0.333862 0.000000
0.000000 0.118080 0.000000
0.155846 0.126274 0.000000
0.296905 0.144242 0.000000
0.416963 0.174165 0.000000
0.515691 0.210828 0.000000
0.592298 0.253045 0.000000
0.657431 0.297738 0.000000
0.715927 0.340215 0.000000
0.769921 0.381840 0.000000
0.825835 0.416963 0.000000
0.881840 0.443754 0.000000
0.940407 0.461319 0.000000
1.000000 0.467439 0.000000
0.000000 0.163756 0.000000
0.141286 0.172291 0.000000
0.270525 0.193465 0.000000
0.381840 0.230079 0.000000
0.476755 0.275293 0.000000
0.547910 0.326106 0.000000
0.609720 0.379630 0.000000
0.668067 0.429612 0.000000
0.724707 0.476755 0.000000
0.789172 0.515691 0.000000
0.855746 0.546250 0.000000
0.926557 0.566667 0.000000
1.000000 0.573196 0.000000
0.000000 0.212358 0.000000
0.124018 0.221479 0.000000
0.238501 0.245763 0.000000
0.340215 0.284073 0.000000
0.429612 0.331933 0.000000
0.496653 0.385484 0.000000
0.556276 0.441856 0.000000
0.614516 0.496653 0.000000
0.673894 0.547910 0.000000
0.746955 0.592298 0.000000
0.825528 0.627004 0.000000
0.910445 0.650068 0.000000
1.000000 0.657968 0.000000
0.000000 0.271045 0.000000
0.106859 0.279783 0.000000
0.206621 0.304468 0.000000
0.297738 0.342569 0.000000
0.379630 0.390280 0.000000
0.441856 0.443724 0.000000
0.500000 0.500000 0.000000
0.558144 0.556276 0.000000
0.620370 0.609720 0.000000
0.702262 0.657431 0.000000
0.793379 0.695532 0.000000
0.893142 0.720217 0.000000
1.000000 0.728955 0.000000
0.000000 0.342031 0.000000
0.089555 0.349932 0.000000
0.174472 0.372996 0.000000
0.253045 0.407702 0.000000
0.326106 0.452090 0.000000
0.385484 0.503347 0.000000
0.443724 0.558144 0.000000
0.503347 0.614516 0.000000
0.570388 0.668067 0.000000
0.659785 0.715927 0.000000
0.761499 0.754237 0.000000
0.875983 0.778521 0.000000
1.000000 0.787642 0.000000
0.000000 0.426804 0.000000
0.073443 0.433333 0.000000
0.144254 0.453750 0.000000
0.210828 0.484309 0.000000
0.275293 0.523245 0.000000
0.331933 0.570388 0.000000
0.390280 0.620370 0.000000
0.452090 0.673894 0.000000
0.523245 0.724707 0.000000
0.618160 0.769921 0.000000
0.729475 0.806535 0.000000
0.858715 0.827709 0.000000
1.000000 0.836244 0.000000
0.000000 0.532561 0.000000
0.059593 0.538681 0.000000
0.118160 0.556246 0.000000
0.174165 0.583037 0.000000
0.230079 0.618160 0.000000
0.284073 0.659785 0.000000
0.342569 0.702262 0.000000
0.407702 0.746955 0.000000
0.484309 0.789172 0.000000
0.583037 0.825835 0.000000
0.703095 0.855758 0.000000
0.844154 0.873726 0.000000
1.000000 0.881920 0.000000
0.000000 0.666138 0.000000
0.048226 0.669759 0.000000
0.096278 0.682752 0.000000
0.144242 0.703095 0.000000
0.193465 0.729475 0.000000
0.245763 0.761499 0.000000
0.304468 0.793379 0.000000
0.372996 0.825528 0.000000
0.453750 0.855746 0.000000
0.556246 0.881840 0.000000
0.682752 0.903722 0.000000
0.833302 0.915930 0.000000
1.000000 0.921482 0.000000
0.000000 0.823783 0.000000
0.040914 0.825936 0.000000
0.084070 0.833302 0.000000
0.126274 0.844154 0.000000
0.172291 0.858715 0.000000
0.221479 0.875983 0.000000
0.279783 0.893142 0.000000
0.349932 0.910445 0.000000
0.433333 0.926557 0.000000
0.538681 0.940407 0.000000
0.669759 0.951774 0.000000
0.825936 0.959086 0.000000
1.000000 0.962823 0.000000
0.000000 1.000000 0.000000
0.037177 1.000000 0.000000
0.078518 1.000000 0.000000
0.118080 1.000000 0.000000
0.163756 1.000000 0.000000
0.212358 1.000000 0.000000
0.271045 1.000000 0.000000
0.342032 1.000000 0.000000
0.426804 1.000000 0.000000
0.532561 1.000000 0.000000
0.666138 1.000000 0.000000
0.823783 1.000000 0.000000
1.000000 1.000000 0.000000
0.000000 0.000000 0.082500
0.176217 0.000000 0.082500
0.333862 0.000000 0.082500
0.467439 0.000000 0.082500
0.573196 0.000000 0.082500
0.657969 0.000000 0.082500
0.728955 0.000000 0.082500
0.787642 0.000000 0.082500
0.836244 0.000000 0.082500
0.881920 0.000000 0.082500
0.921482 0.000000 0.082500
0.962823 0.000000 0.082500
1.000000 0.000000 0.082500
0.000000 0.037177 0.082500
0.174065 0.040914 0.082500
0.330241 0.048226 0.082500
0.461319 0.059593 0.082500
0.566667 0.073443 0.082500
0.650068 0.089555 0.082500
0.720217 0.106859 0.082500
0.778521 0.124018 0.082500
0.827709 0.141286 0.082500
0.873726 0.155846 0.082500
0.915930 0.166699 0.082500
0.959086 0.174065 0.082500
1.000000 0.176217 0.082500
0.000000 0.078518 0.082500
0.166699 0.084070 0.082500
0.317248 0.096278 0.082500
0.443754 0.118160 0.082500
0.546250 0.144254 0.082500
0.627004 0.174472 0.082500
0.695532 0.206621 0.082500
0.754237 0.238501 0.082500
0.806535 0.270525 0.082500
0.855758 0.296905 0.082500
0.903722 0.317248 0.082500
0.951774 0.330241 0.082500
1.000000 0.333862 0.082500
0.000000 0.118080 0.082500
0.155846 0.126274 0.082500
0.296905 0.144242 0.082500
0.416963 0.174165 0.082500
0.515691 0.210828 0.082500
0.592298 0.253045 0.082500
0.657431 0.297738 0.082500
0.715927 0.340215 0.082500
0.769921 0.381840 0.082500
0.825835 0.416963 0.082500
0.881840 0.443754 0.082500
0.940407 0.461319 0.082500
1.000000 0.467439 0.082500
0.000000 0.163756 0.082500
0.141286 0.172291 0.082500
0.270525 0.193465 0.082500
0.381840 0.230079 0.082500
0.476755 0.275293 0.082500
0.547910 0.326106 0.082500
0.609720 0.379630 0.082500
0.668067 0.429612 0.082500
0.724707 0.476755 0.082500
0.789172 0.515691 0.082500
0.855746 0.546250 0.082500
0.926557 0.566667 0.082500
1.000000 0.573196 0.082500
0.000000 0.212358 0.082500
0.124018 0.221479 0.082500
0.238501 0.245763 0.082500
0.340215 0.284073 0.082500
0.429612 0.331933 0.082500
0.496653 0.385484 0.082500
0.556276 0.441856 0.082500
0.614516 0.496653 0.082500
0.673894 0.547910 0.082500
0.746955 0.592298 0.082500
0.825528 0.627004 0.082500
0.910445 0.650068 0.082500
1.000000 0.657968 0.082500
0.000000 0.271045 0.082500
0.106859 0.279783 0.082500
0.206621 0.304468 0.082500
0.297738 0.342569 0.082500
0.379630 0.390280 0.082500
0.441856 0.443724 0.082500
0.500000 0.500000 0.082500
0.558144 0.556276 0.082500
0.620370 0.609720 0.082500
0.702262 0.657431 0.082500
0.793379 0.695532 0.082500
0.893142 0.720217 0.082500
1.000000 0.728955 0.082500
0.000000 0.342031 0.082500
0.089555 0.349932 0.082500
0.174472 0.372996 0.082500
0.253045 0.407702 0.082500
0.326106 0.452090 0.082500
0.385484 0.503347 0.082500
0.443724 0.558144 0.082500
0.503347 0.614516 0.082500
0.570388 0.668067 0.082500
0.659785 0.715927 0.082500
0.761499 0.754237 0.082500
0.875983 0.778521 0.082500
1.000000 0.787642 0.082500
0.000000 0.426804 0.082500
0.073443 0.433333 0.082500
0.144254 0.453750 0.082500
0.210828 0.484309 0.082500
0.275293 0.523245 0.082500
0.331933 0.570388 0.082500
0.390280 0.620370 0.082500
0.452090 0.673894 0.082500
0.523245 0.724707 0.082500
0.618160 0.769921 0.082500
0.729475 0.806535 0.082500
0.858715 0.827709 0.082500
1.000000 0.836244 0.082500
0.000000 0.532561 0.082500
0.059593 0.538681 0.082500
0.118160 0.556246 0.082500
0.174165 0.583037 0.082500
0.230079 0.618160 0.082500
0.284073 0.659785 0.082500
0.342569 0.702262 0.082500
0.407702 0.746955 0.082500
0.484309 0.789172 0.082500
0.583037 0.825835 0.082500
0.703095 0.855758 0.082500
0.844154 0.873726 0.082500
1.000000 0.881920 0.082500
0.000000 0.666138 0.082500
0.048226 0.669759 0.082500
0.096278 0.682752 0.082500
0.144242 0.703095 0.082500
0.193465 0.729475 0.082500
0.245763 0.761499 0.082500
0.304468 0.793379 0.082500
0.372996 0.825528 0.082500
0.453750 0.855746 0.082500
0.556246 0.881840 0.082500
0.682752 0.903722 0.082500
0.833302 0.915930 0.082500
1.000000 0.921482 0.082500
0.000000 0.823783 0.082500
0.040914 0.825936 0.082500
0.084070 0.833302 0.082500
0.126274 0.844154 0.082500
0.172291 0.858715 0.082500
0.221479 0.875983 0.082500
0.279783 0.893142 0.082500
0.349932 0.910445 0.082500
0.433333 0.926557 0.082500
0.538681 0.940407 0.082500
0.669759 0.951774 0.082500
0.825936 0.959086 0.082500
1.000000 0.962823 0.082500
0.000000 1.000000 0.082500
0.037177 1.000000 0.082500
0.078518 1.000000 0.082500
0.118080 1.000000 0.082500
0.163756 1.000000 0.082500
0.212358 1.000000 0.082500
0.271045 1.000000 0.082500
0.342032 1.000000 0.082500
0.426804 1.000000 0.082500
0.532561 1.000000 0.082500
0.666138 1.000000 0.082500
0.823783 1.000000 0.082500
1.000000 1.000000 0.082500
0.000000 0.000000 0.165000
0.176217 0.000000 0.165000
0.333862 0.000000 0.165000
0.467439 0.000000 0.165000
0.573196 0.000000 0.165000
0.657969 0.000000 0.165000
0.728955 0.000000 0.165000
0.787642 0.000000 0.165000
0.836244 0.000000 0.165000
0.881920 0.000000 0.165000
0.921482 0.000000 0.165000
0.962823 0.000000 0.165000
1.000000 0.000000 0.165000
0.000000 0.037177 0.165000
0.174065 0.040914 0.165000
0.330241 0.048226 0.165000
0.461319 0.059593 0.165000
0.566667 0.073443 0.165000
0.650068 0.089555 0.165000
0.720217 0.106859 0.165000
0.778521 0.124018 0.165000
0.827709 0.141286 0.165000
0.873726 0.155846 0.165000
0.915930 0.166699 0.165000
0.959086 0.174065 0.165000
1.000000 0.176217 0.165000
0.000000 0.078518 0.165000
0.166699 0.084070 0.165000
[...]
POINT_DATA 845 
VECTORS pos float 
0.000000 0.000000 0.000000
0.176217 0.000000 0.000000
0.333862 0.000000 0.000000
0.467439 0.000000 0.000000
0.573196 0.000000 0.000000
0.657969 0.000000 0.000000
0.728955 0.000000 0.000000
0.787642 0.000000 0.000000
0.836244 0.000000 0.000000
0.881920 0.000000 0.000000
0.921482 0.000000 0.000000
0.962823 0.000000 0.000000
1.000000 0.000000 0.000000
0.000000 0.037177 0.000000
0.174065 0.040914 0.000000
0.330241 0.048226 0.000000
0.461319 0.059593 0.000000
0.566667 0.073443 0.000000
0.650068 0.089555 0.000000
0.720217 0.106859 0.000000
0.778521 0.124018 0.000000
0.827709 0.141286 0.000000
0.873726 0.155846 0.000000
0.915930 0.166699 0.000000
0.959086 0.174065 0.000000
1.000000 0.176217 0.000000
0.000000 0.078518 0.000000
0.166699 0.084070 0.000000
0.317248 0.096278 0.000000
0.443754 0.118160 0.000000
0.546250 0.144254 0.000000
0.627004 0.174472 0.000000
0.695532 0.206621 0.000000
0.754237 0.238501 0.000000
0.806535 0.270525 0.000000
0.855758 0.296905 0.000000
0.903722 0.317248 0.000000
0.951774 0.330241 0.000000
1.000000 0.333862 0.000000
0.000000 0.118080 0.000000
0.155846 0.126274 0.000000
0.296905 0.144242 0.000000
0.416963 0.174165 0.000000
0.515691 0.210828 0.000000
0.592298 0.253045 0.000000
0.657431 0.297738 0.000000
0.715927 0.340215 0.000000
0.769921 0.381840 0.000000
0.825835 0.416963 0.000000
0.881840 0.443754 0.000000
0.940407 0.461319 0.000000
1.000000 0.467439 0.000000
0.000000 0.163756 0.000000
0.141286 0.172291 0.000000
0.270525 0.193465 0.000000
0.381840 0.230079 0.000000
0.476755 0.275293 0.000000
0.547910 0.326106 0.000000
0.609720 0.379630 0.000000
0.668067 0.429612 0.000000
0.724707 0.476755 0.000000
0.789172 0.515691 0.000000
0.855746 0.546250 0.000000
0.926557 0.566667 0.000000
1.000000 0.573196 0.000000
0.000000 0.212358 0.000000
0.124018 0.221479 0.000000
0.238501 0.245763 0.000000
0.340215 0.284073 0.000000
0.429612 0.331933 0.000000
0.496653 0.385484 0.000000
0.556276 0.441856 0.000000
0.614516 0.496653 0.000000
0.673894 0.547910 0.000000
0.746955 0.592298 0.000000
0.825528 0.627004 0.000000
0.910445 0.650068 0.000000
1.000000 0.657968 0.000000
0.000000 0.271045 0.000000
0.106859 0.279783 0.000000
0.206621 0.304468 0.000000
0.297738 0.342569 0.000000
0.379630 0.390280 0.000000
0.441856 0.443724 0.000000
0.500000 0.500000 0.000000
0.558144 0.556276 0.000000
0.620370 0.609720 0.000000
0.702262 0.657431 0.000000
0.793379 0.695532 0.000000
0.893142 0.720217 0.000000
1.000000 0.728955 0.000000
0.000000 0.342031 0.000000
0.089555 0.349932 0.000000
0.174472 0.372996 0.000000
0.253045 0.407702 0.000000
0.326106 0.452090 0.000000
0.385484 0.503347 0.000000
0.443724 0.558144 0.000000
0.503347 0.614516 0.000000
0.570388 0.668067 0.000000
0.659785 0.715927 0.000000
0.761499 0.754237 0.000000
0.875983 0.778521 0.000000
1.000000 0.787642 0.000000
0.000000 0.426804 0.000000
0.073443 0.433333 0.000000
0.144254 0.453750 0.000000
0.210828 0.484309 0.000000
0.275293 0.523245 0.000000
0.331933 0.570388 0.000000
0.390280 0.620370 0.000000
0.452090 0.673894 0.000000
0.523245 0.724707 0.000000
0.618160 0.769921 0.000000
0.729475 0.806535 0.000000
0.858715 0.827709 0.000000
1.000000 0.836244 0.000000
0.000000 0.532561 0.000000
0.059593 0.538681 0.000000
0.118160 0.556246 0.000000
0.174165 0.583037 0.000000
0.230079 0.618160 0.000000
0.284073 0.659785 0.000000
0.342569 0.702262 0.000000
0.407702 0.746955 0.000000
0.484309 0.789172 0.000000
0.583037 0.825835 0.000000
0.703095 0.855758 0.000000
0.844154 0.873726 0.000000
1.000000 0.881920 0.000000
0.000000 0.666138 0.000000
0.048226 0.669759 0.000000
0.096278 0.682752 0.000000
0.144242 0.703095 0.000000
0.193465 0.729475 0.000000
0.245763 0.761499 0.000000
0.304468 0.793379 0.000000
0.372996 0.825528 0.000000
0.453750 0.855746 0.000000
0.556246 0.881840 0.000000
0.682752 0.903722 0.000000
0.833302 0.915930 0.000000
1.000000 0.921482 0.000000
0.000000 0.823783 0.000000
0.040914 0.825936 0.000000
0.084070 0.833302 0.000000
0.126274 0.844154 0.000000
0.172291 0.858715 0.000000
0.221479 0.875983 0.000000
0.279783 0.893142 0.000000
0.349932 0.910445 0.000000
0.433333 0.926557 0.000000
0.538681 0.940407 0.000000
0.669759 0.951774 0.000000
0.825936 0.959086 0.000000
1.000000 0.962823 0.000000
0.000000 1.000000 0.000000
0.037177 1.000000 0.000000
0.078518 1.000000 0.000000
0.118080 1.000000 0.000000
0.163756 1.000000 0.000000
0.212358 1.000000 0.000000
0.271045 1.000000 0.000000
0.342032 1.000000 0.000000
0.426804 1.000000 0.000000
0.532561 1.000000 0.000000
0.666138 1.000000 0.000000
0.823783 1.000000 0.000000
1.000000 1.000000 0.000000
0.000000 0.000000 0.082500
0.176217 0.000000 0.082500
0.333862 0.000000 0.082500
0.467439 0.000000 0.082500
0.573196 0.000000 0.082500
0.657969 0.000000 0.082500
0.728955 0.000000 0.082500
0.787642 0.000000 0.082500
0.836244 0.000000 0.082500
0.881920 0.000000 0.082500
0.921482 0.000000 0.082500
0.962823 0.000000 0.082500
1.000000 0.000000 0.082500
0.000000 0.037177 0.082500
0.174065 0.040914 0.082500
0.330241 0.048226 0.082500
0.461319 0.059593 0.082500
0.566667 0.073443 0.082500
0.650068 0.089555 0.082500
0.720217 0.106859 0.082500
0.778521 0.124018 0.082500
0.827709 0.141286 0.082500
0.873726 0.155846 0.082500
0.915930 0.166699 0.082500
0.959086 0.174065 0.082500
1.000000 0.176217 0.082500
0.000000 0.078518 0.082500
0.166699 0.084070 0.082500
0.317248 0.096278 0.082500
0.443754 0.118160 0.082500
0.546250 0.144254 0.082500
0.627004 0.174472 0.082500
0.695532 0.206621 0.082500
0.754237 0.238501 0.082500
0.806535 0.270525 0.082500
0.855758 0.296905 0.082500
0.903722 0.317248 0.082500
0.951774 0.330241 0.082500
1.000000 0.333862 0.082500
0.000000 0.118080 0.082500
0.155846 0.126274 0.082500
0.296905 0.144242 0.082500
0.416963 0.174165 0.082500
0.515691 0.210828 0.082500
0.592298 0.253045 0.082500
0.657431 0.297738 0.082500
0.715927 0.340215 0.082500
0.769921 0.381840 0.082500
0.825835 0.416963 0.082500
0.881840 0.443754 0.082500
0.940407 0.461319 0.082500
1.000000 0.467439 0.082500
0.000000 0.163756 0.082500
0.141286 0.172291 0.082500
0.270525 0.193465 0.082500
0.381840 0.230079 0.082500
0.476755 0.275293 0.082500
0.547910 0.326106 0.082500
0.609720 0.379630 0.082500
0.668067 0.429612 0.082500
0.724707 0.476755 0.082500
0.789172 0.515691 0.082500
0.855746 0.546250 0.082500
0.926557 0.566667 0.082500
1.000000 0.573196 0.082500
0.000000 0.212358 0.082500
0.124018 0.221479 0.082500
0.238501 0.245763 0.082500
0.340215 0.284073 0.082500
0.429612 0.331933 0.082500
0.496653 0.385484 0.082500
0.556276 0.441856 0.082500
0.614516 0.496653 0.082500
0.673894 0.547910 0.082500
0.746955 0.592298 0.082500
0.825528 0.627004 0.082500
0.910445 0.650068 0.082500
1.000000 0.657968 0.082500
0.000000 0.271045 0.082500
0.106859 0.279783 0.082500
0.206621 0.304468 0.082500
0.297738 0.342569 0.082500
0.379630 0.390280 0.082500
0.441856 0.443724 0.082500
0.500000 0.500000 0.082500
0.558144 0.556276 0.082500
0.620370 0.609720 0.082500
0.702262 0.657431 0.082500
0.793379 0.695532 0.082500
0.893142 0.720217 0.082500
1.000000 0.728955 0.082500
0.000000 0.342031 0.082500
0.089555 0.349932 0.082500
0.174472 0.372996 0.082500
0.253045 0.407702 0.082500
0.326106 0.452090 0.082500
0.385484 0.503347 0.082500
0.443724 0.558144 0.082500
0.503347 0.614516 0.082500
0.570388 0.668067 0.082500
0.659785 0.715927 0.082500
0.761499 0.754237 0.082500
0.875983 0.778521 0.082500
1.000000 0.787642 0.082500
0.000000 0.426804 0.082500
0.073443 0.433333 0.082500
0.144254 0.453750 0.082500
0.210828 0.484309 0.082500
0.275293 0.523245 0.082500
0.331933 0.570388 0.082500
0.390280 0.620370 0.082500
0.452090 0.673894 0.082500
0.523245 0.724707 0.082500
0.618160 0.769921 0.082500
0.729475 0.806535 0.082500
0.858715 0.827709 0.082500
1.000000 0.836244 0.082500
0.000000 0.532561 0.082500
0.059593 0.538681 0.082500
0.118160 0.556246 0.082500
0.174165 0.583037 0.082500
0.230079 0.618160 0.082500
0.284073 0.659785 0.082500
0.342569 0.702262 0.082500
0.407702 0.746955 0.082500
0.484309 0.789172 0.082500
0.583037 0.825835 0.082500
0.703095 0.855758 0.082500
0.844154 0.873726 0.082500
1.000000 0.881920 0.082500
0.000000 0.666138 0.082500
0.048226 0.669759 0.082500
0.096278 0.682752 0.082500
0.144242 0.703095 0.082500
0.193465 0.729475 0.082500
0.245763 0.761499 0.082500
0.304468 0.793379 0.082500
0.372996 0.825528 0.082500
0.453750 0.855746 0.082500
0.556246 0.881840 0.082500
0.682752 0.903722 0.082500
0.833302 0.915930 0.082500
1.000000 0.921482 0.082500
0.000000 0.823783 0.082500
0.040914 0.825936 0.082500
0.084070 0.833302 0.082500
0.126274 0.844154 0.082500
0.172291 0.858715 0.082500
0.221479 0.875983 0.082500
0.279783 0.893142 0.082500
0.349932 0.910445 0.082500
0.433333 0.926557 0.082500
0.538681 0.940407 0.082500
0.669759 0.951774 0.082500
0.825936 0.959086 0.082500
1.000000 0.962823 0.082500
0.000000 1.000000 0.082500
0.037177 1.000000 0.082500
0.078518 1.000000 0.082500
0.118080 1.000000 0.082500
0.163756 1.000000 0.082500
0.212358 1.000000 0.082500
0.271045 1.000000 0.082500
0.342032 1.000000 0.082500
0.426804 1.000000 0.082500
0.532561 1.000000 0.082500
0.666138 1.000000 0.082500
0.823783 1.000000 0.082500
1.000000 1.000000 0.082500
0.000000 0.000000 0.165000
0.176217 0.000000 0.165000
0.333862 0.000000 0.165000
0.467439 0.000000 0.165000
0.573196 0.000000 0.165000
0.657969 0.000000 0.165000
0.728955 0.000000 0.165000
0.787642 0.000000 0.165000
0.836244 0.000000 0.165000
0.881920 0.000000 0.165000
0.921482 0.000000 0.165000
0.962823 0.000000 0.165000
1.000000 0.000000 0.165000
0.000000 0.037177 0.165000
0.174065 0.040914 0.165000
0.330241 0.048226 0.165000
0.461319 0.059593 0.165000
0.566667 0.073443 0.165000
0.650068 0.089555 0.165000
0.720217 0.106859 0.165000
0.778521 0.124018 0.165000
0.827709 0.141286 0.165000
0.873726 0.155846 0.165000
0.915930 0.166699 0.165000
0.959086 0.174065 0.165000
1.000000 0.176217 0.165000
0.000000 0.078518 0.165000
0.166699 0.084070 0.165000
0.317248 0.096278 0.165000
0.443754 0.118160 0.165000
0.546250 0.144254 0.165000
0.627004 0.174472 0.165000
0.695532 0.206621 0.165000
0.754237 0.238501 0.165000
0.806535 0.270525 0.165000
0.855758 0.296905 0.165000
0.903722 0.317248 0.165000
0.951774 0.330241 0.165000
1.000000 0.333862 0.165000
0.000000 0.118080 0.165000
0.155846 0.126274 0.165000
0.296905 0.144242 0.165000
0.416963 0.174165 0.165000
0.515691 0.210828 0.165000
0.592298 0.253045 0.165000
0.657431 0.297738 0.165000
0.715927 0.340215 0.165000
0.769921 0.381840 0.165000
0.825835 0.416963 0.165000
0.881840 0.443754 0.165000
0.940407 0.461319 0.165000
1.000000 0.467439 0.165000
0.000000 0.163756 0.165000
0.141286 0.172291 0.165000
0.270525 0.193465 0.165000
0.381840 0.230079 0.165000
0.476755 0.275293 0.165000
0.547910 0.326106 0.165000
0.609720 0.379630 0.165000
0.668067 0.429612 0.165000
0.724707 0.476755 0.165000
0.789172 0.515691 0.165000
0.855746 0.546250 0.165000
0.926557 0.566667 0.165000
1.000000 0.573196 0.165000
0.000000 0.212358 0.165000
0.124018 0.221479 0.165000
0.238501 0.245763 0.165000
0.340215 0.284073 0.165000
0.429612 0.331933 0.165000
0.496653 0.385484 0.165000
0.556276 0.441856 0.165000
0.614516 0.496653 0.165000
0.673894 0.547910 0.165000
0.746955 0.592298 0.165000
0.825528 0.627004 0.165000
0.910445 0.650068 0.165000
1.000000 0.657968 0.165000
0.000000 0.271045 0.165000
0.106859 0.279783 0.165000
0.206621 0.304468 0.165000
0.297738 0.342569 0.165000
0.379630 0.390280 0.165000
0.441856 0.443724 0.165000
0.500000 0.500000 0.165000
0.558144 0.556276 0.165000
0.620370 0.609720 0.165000
0.702262 0.657431 0.165000
0.793379 0.695532 0.165000
0.893142 0.720217 0.165000
1.000000 0.728955 0.165000
0.000000 0.342031 0.165000
0.089555 0.349932 0.165000
0.174472 0.372996 0.165000
0.253045 0.407702 0.165000
0.326106 0.452090 0.165000
0.385484 0.503347 0.165000
0.443724 0.558144 0.165000
0.503347 0.614516 0.165000
0.570388 0.668067 0.165000
0.659785 0.715927 0.165000
0.761499 0.754237 0.165000
0.875983 0.778521 0.165000
1.000000 0.787642 0.165000
0.000000 0.426804 0.165000
0.073443 0.433333 0.165000
0.144254 0.453750 0.165000
0.210828 0.484309 0.165000
0.275293 0.523245 0.165000
0.331933 0.570388 0.165000
0.390280 0.620370 0.165000
0.452090 0.673894 0.165000
0.523245 0.724707 0.165000
0.618160 0.769921 0.165000
0.729475 0.806535 0.165000
0.858715 0.827709 0.165000
1.000000 0.836244 0.165000
0.000000 0.532561 0.165000
0.059593 0.538681 0.165000
0.118160 0.556246 0.165000
0.174165 0.583037 0.165000
0.230079 0.618160 0.165000
0.284073 0.659785 0.165000
0.342569 0.702262 0.165000
0.407702 0.746955 0.165000
0.484309 0.789172 0.165000
0.583037 0.825835 0.165000
0.703095 0.855758 0.165000
0.844154 0.873726 0.165000
1.000000 0.881920 0.165000
0.000000 0.666138 0.165000
0.048226 0.669759 0.165000
0.096278 0.682752 0.165000
0.144242 0.703095 0.165000
0.193465 0.729475 0.165000
0.245763 0.761499 0.165000
0.304468 0.793379 0.165000
0.372996 0.825528 0.165000
0.453750 0.855746 0.165000
0.556246 0.881840 0.165000
0.682752 0.903722 0.165000
0.833302 0.915930 0.165000
1.000000 0.921482 0.165000
0.000000 0.823783 0.165000
0.040914 0.825936 0.165000
0.084070 0.833302 0.165000
0.126274 0.844154 0.165000
0.172291 0.858715 0.165000
0.221479 0.875983 0.165000
0.279783 0.893142 0.165000
0.349932 0.910445 0.165000
0.433333 0.926557 0.165000
0.538681 0.940407 0.165000
0.669759 0.951774 0.165000
0.825936 0.959086 0.165000
1.000000 0.962823 0.165000
0.000000 1.000000 0.165000
0.037177 1.000000 0.165000
0.078518 1.000000 0.165000
0.118080 1.000000 0.165000
0.163756 1.000000 0.165000
0.212358 1.000000 0.165000
0.271045 1.000000 0.165000
0.342032 1.000000 0.165000
0.426804 1.000000 0.165000
0.532561 1.000000 0.165000
0.666138 1.000000 0.165000
0.823783 1.000000 0.165000
1.000000 1.000000 0.165000
0.000000 0.000000 0.247500
0.176217 0.000000 0.247500
0.333862 0.000000 0.247500
0.467439 0.000000 0.247500
0.573196 0.000000 0.247500
0.657969 0.000000 0.247500
0.728955 0.000000 0.247500
0.787642 0.000000 0.247500
0.836244 0.000000 0.247500
0.881920 0.000000 0.247500
0.921482 0.000000 0.247500
0.962823 0.000000 0.247500
1.000000 0.000000 0.247500
0.000000 0.037177 0.247500
0.174065 0.040914 0.247500
0.330241 0.048226 0.247500
0.461319 0.059593 0.247500
0.566667 0.073443 0.247500
0.650068 0.089555 0.247500
0.720217 0.106859 0.247500
0.778521 0.124018 0.247500
0.827709 0.141286 0.247500
0.873726 0.155846 0.247500
0.915930 0.166699 0.247500
0.959086 0.174065 0.247500
1.000000 0.176217 0.247500
0.000000 0.078518 0.247500
0.166699 0.084070 0.247500
0.317248 0.096278 0.247500
0.443754 0.118160 0.247500
0.546250 0.144254 0.247500
0.627004 0.174472 0.247500
0.695532 0.206621 0.247500
0.754237 0.238501 0.247500
0.806535 0.270525 0.247500
0.855758 0.296905 0.247500
0.903722 0.317248 0.247500
0.951774 0.330241 0.247500
1.000000 0.333862 0.247500
0.000000 0.118080 0.247500
0.155846 0.126274 0.247500
0.296905 0.144242 0.247500
0.416963 0.174165 0.247500
0.515691 0.210828 0.247500
0.592298 0.253045 0.247500
0.657431 0.297738 0.247500
0.715927 0.340215 0.247500
0.769921 0.381840 0.247500
0.825835 0.416963 0.247500
0.881840 0.443754 0.247500
0.940407 0.461319 0.247500
1.000000 0.467439 0.247500
0.000000 0.163756 0.247500
0.141286 0.172291 0.247500
0.270525 0.193465 0.247500
0.381840 0.230079 0.247500
0.476755 0.275293 0.247500
0.547910 0.326106 0.247500
0.609720 0.379630 0.247500
0.668067 0.429612 0.247500
0.724707 0.476755 0.247500
0.789172 0.515691 0.247500
0.855746 0.546250 0.247500
0.926557 0.566667 0.247500
1.000000 0.573196 0.247500
0.000000 0.212358 0.247500
0.124018 0.221479 0.247500
0.238501 0.245763 0.247500
0.340215 0.284073 0.247500
0.429612 0.331933 0.247500
0.496653 0.385484 0.247500
0.556276 0.441856 0.247500
0.614516 0.496653 0.247500
0.673894 0.547910 0.247500
0.746955 0.592298 0.247500
0.825528 0.627004 0.247500
0.910445 0.650068 0.247500
1.000000 0.657968 0.247500
0.000000 0.271045 0.247500
0.106859 0.279783 0.247500
0.206621 0.304468 0.247500
0.297738 0.342569 0.247500
0.379630 0.390280 0.247500
0.441856 0.443724 0.247500
0.500000 0.500000 0.247500
0.558144 0.556276 0.247500
0.620370 0.609720 0.247500
0.702262 0.657431 0.247500
0.793379 0.695532 0.247500
0.893142 0.720217 0.247500
1.000000 0.728955 0.247500
0.000000 0.342031 0.247500
0.089555 0.349932 0.247500
0.174472 0.372996 0.247500
0.253045 0.407702 0.247500
0.326106 0.452090 0.247500
0.385484 0.503347 0.247500
0.443724 0.558144 0.247500
0.503347 0.614516 0.247500
0.570388 0.668067 0.247500
0.659785 0.715927 0.247500
0.761499 0.754237 0.247500
0.875983 0.778521 0.247500
1.000000 0.787642 0.247500
0.000000 0.426804 0.247500
0.073443 0.433333 0.247500
0.144254 0.453750 0.247500
0.210828 0.484309 0.247500
0.275293 0.523245 0.247500
0.331933 0.570388 0.247500
0.390280 0.620370 0.247500
0.452090 0.673894 0.247500
0.523245 0.724707 0.247500
0.618160 0.769921 0.247500
0.729475 0.806535 0.247500
0.858715 0.827709 0.247500
1.000000 0.836244 0.247500
0.000000 0.532561 0.247500
0.059593 0.538681 0.247500
0.118160 0.556246 0.247500
0.174165 0.583037 0.247500
0.230079 0.618160 0.247500
0.284073 0.659785 0.247500
0.342569 0.702262 0.247500
0.407702 0.746955 0.247500
0.484309 0.789172 0.247500
0.583037 0.825835 0.247500
0.703095 0.855758 0.247500
0.844154 0.873726 0.247500
1.000000 0.881920 0.247500
0.000000 0.666138 0.247500
0.048226 0.669759 0.247500
0.096278 0.682752 0.247500
0.144242 0.703095 0.247500
0.193465 0.729475 0.247500
0.245763 0.761499 0.247500
0.304468 0.793379 0.247500
0.372996 0.825528 0.247500
0.453750 0.855746 0.247500
0.556246 0.881840 0.247500
0.682752 0.903722 0.247500
0.833302 0.915930 0.247500
1.000000 0.921482 0.247500
0.000000 0.823783 0.247500
0.040914 0.825936 0.247500
0.084070 0.833302 0.247500
0.126274 0.844154 0.247500
0.172291 0.858715 0.247500
0.221479 0.875983 0.247500
0.279783 0.893142 0.247500
0.349932 0.910445 0.247500
0.433333 0.926557 0.247500
0.538681 0.940407 0.247500
0.669759 0.951774 0.247500
0.825936 0.959086 0.247500
1.000000 0.962823 0.247500
0.000000 1.000000 0.247500
0.037177 1.000000 0.247500
0.078518 1.000000 0.247500
0.118080 1.000000 0.247500
0.163756 1.000000 0.247500
0.212358 1.000000 0.247500
0.271045 1.000000 0.247500
0.342032 1.000000 0.247500
0.426804 1.000000 0.247500
0.532561 1.000000 0.247500
0.666138 1.000000 0.247500
0.823783 1.000000 0.247500
1.000000 1.000000 0.247500
0.000000 0.000000 0.330000
0.176217 0.000000 0.330000
0.333862 0.000000 0.330000
0.467439 0.000000 0.330000
0.573196 0.000000 0.330000
0.657969 0.000000 0.330000
0.728955 0.000000 0.330000
0.787642 0.000000 0.330000
0.836244 0.000000 0.330000
0.881920 0.000000 0.330000
0.921482 0.000000 0.330000
0.962823 0.000000 0.330000
1.000000 0.000000 0.330000
0.000000 0.037177 0.330000
0.174065 0.040914 0.330000
0.330241 0.048226 0.330000
0.461319 0.059593 0.330000
0.566667 0.073443 0.330000
0.650068 0.089555 0.330000
0.720217 0.106859 0.330000
0.778521 0.124018 0.330000
0.827709 0.141286 0.330000
0.873726 0.155846 0.330000
0.915930 0.166699 0.330000
0.959086 0.174065 0.330000
1.000000 0.176217 0.330000
0.000000 0.078518 0.330000
0.166699 0.084070 0.330000
0.317248 0.096278 0.330000
0.443754 0.118160 0.330000
0.546250 0.144254 0.330000
0.627004 0.174472 0.330000
0.695532 0.206621 0.330000
0.754237 0.238501 0.330000
0.806535 0.270525 0.330000
0.855758 0.296905 0.330000
0.903722 0.317248 0.330000
0.951774 0.330241 0.330000
1.000000 0.333862 0.330000
0.000000 0.118080 0.330000
0.155846 0.126274 0.330000
0.296905 0.144242 0.330000
0.416963 0.174165 0.330000
0.515691 0.210828 0.330000
0.592298 0.253045 0.330000
0.657431 0.297738 0.330000
0.715927 0.340215 0.330000
0.769921 0.381840 0.330000
0.825835 0.416963 0.330000
0.881840 0.443754 0.330000
0.940407 0.461319 0.330000
1.000000 0.467439 0.330000
0.000000 0.163756 0.330000
0.141286 0.172291 0.330000
0.270525 0.193465 0.330000
0.381840 0.230079 0.330000
0.476755 0.275293 0.330000
0.547910 0.326106 0.330000
0.609720 0.379630 0.330000
0.668067 0.429612 0.330000
0.724707 0.476755 0.330000
0.789172 0.515691 0.330000
0.855746 0.546250 0.330000