# vtk DataFile Version 2.0
Mesh for Fierro
ASCII 
DATASET UNSTRUCTURED_GRID

POINTS 845 float
0.000000 0.000000 0.000000
0.310786 0.000000 0.000000
0.523108 0.000000 0.000000
0.652685 0.000000 0.000000
0.737778 0.000000 0.000000
0.800774 0.000000 0.000000
0.847629 0.000000 0.000000
0.883449 0.000000 0.000000
0.912412 0.000000 0.000000
0.936307 0.000000 0.000000
0.958889 0.000000 0.000000
0.979909 0.000000 0.000000
1.000000 0.000000 0.000000
0.000000 0.020091 0.000000
0.306265 0.025843 0.000000
0.516332 0.041116 0.000000
0.643594 0.065418 0.000000
0.726739 0.097238 0.000000
0.786711 0.130375 0.000000
0.831482 0.167111 0.000000
0.866344 0.204639 0.000000
0.895724 0.241329 0.000000
0.922562 0.270427 0.000000
0.948346 0.291657 0.000000
0.974158 0.306265 0.000000
1.000000 0.310786 0.000000
0.000000 0.041111 0.000000
0.291657 0.051654 0.000000
0.496046 0.080109 0.000000
0.619267 0.125015 0.000000
0.698609 0.180993 0.000000
0.754277 0.239407 0.000000
0.794409 0.302886 0.000000
0.826893 0.362953 0.000000
0.854878 0.420002 0.000000
0.886060 0.463715 0.000000
0.919891 0.496046 0.000000
0.958884 0.516332 0.000000
1.000000 0.523108 0.000000
0.000000 0.063693 0.000000
0.270427 0.077438 0.000000
0.463715 0.113940 0.000000
0.579976 0.174349 0.000000
0.653307 0.245947 0.000000
0.700705 0.318901 0.000000
0.730404 0.395365 0.000000
0.759080 0.463769 0.000000
0.785501 0.528450 0.000000
0.825651 0.579976 0.000000
0.874985 0.619267 0.000000
0.934582 0.643594 0.000000
1.000000 0.652685 0.000000
0.000000 0.087588 0.000000
0.241329 0.104276 0.000000
0.420002 0.145122 0.000000
0.528450 0.214499 0.000000
0.597081 0.296173 0.000000
0.634987 0.377578 0.000000
0.655283 0.458977 0.000000
0.679091 0.531148 0.000000
0.703827 0.597081 0.000000
0.754053 0.653307 0.000000
0.819007 0.698609 0.000000
0.902762 0.726739 0.000000
1.000000 0.737778 0.000000
0.000000 0.116551 0.000000
0.204639 0.133656 0.000000
0.362953 0.173107 0.000000
0.463769 0.240920 0.000000
0.531148 0.320909 0.000000
0.562334 0.401942 0.000000
0.579149 0.483935 0.000000
0.598058 0.562334 0.000000
0.622422 0.634987 0.000000
0.681099 0.700705 0.000000
0.760593 0.754277 0.000000
0.869625 0.786711 0.000000
1.000000 0.800774 0.000000
0.000000 0.152371 0.000000
0.167111 0.168518 0.000000
0.302886 0.205591 0.000000
0.395365 0.269596 0.000000
0.458977 0.344717 0.000000
0.483935 0.420851 0.000000
0.500000 0.500000 0.000000
0.516065 0.579149 0.000000
0.541023 0.655283 0.000000
0.604635 0.730404 0.000000
0.697114 0.794409 0.000000
0.832889 0.831482 0.000000
1.000000 0.847629 0.000000
0.000000 0.199226 0.000000
0.130375 0.213289 0.000000
0.239407 0.245723 0.000000
0.318901 0.299295 0.000000
0.377578 0.365013 0.000000
0.401942 0.437666 0.000000
0.420851 0.516065 0.000000
0.437666 0.598058 0.000000
0.468852 0.679091 0.000000
0.536231 0.759080 0.000000
0.637047 0.826893 0.000000
0.795362 0.866344 0.000000
1.000000 0.883449 0.000000
0.000000 0.262222 0.000000
0.097238 0.273261 0.000000
0.180993 0.301391 0.000000
0.245947 0.346693 0.000000
0.296173 0.402919 0.000000
0.320909 0.468852 0.000000
0.344717 0.541023 0.000000
0.365013 0.622422 0.000000
0.402919 0.703827 0.000000
0.471551 0.785501 0.000000
0.579998 0.854878 0.000000
0.758672 0.895724 0.000000
1.000000 0.912412 0.000000
0.000000 0.347315 0.000000
0.065418 0.356406 0.000000
0.125015 0.380733 0.000000
0.174349 0.420024 0.000000
0.214499 0.471551 0.000000
0.240920 0.536231 0.000000
0.269596 0.604635 0.000000
0.299295 0.681099 0.000000
0.346693 0.754053 0.000000
0.420024 0.825651 0.000000
0.536285 0.886060 0.000000
0.729574 0.922562 0.000000
1.000000 0.936307 0.000000
0.000000 0.476892 0.000000
0.041116 0.483668 0.000000
0.080109 0.503954 0.000000
0.113940 0.536285 0.000000
0.145122 0.579998 0.000000
0.173107 0.637047 0.000000
0.205591 0.697114 0.000000
0.245723 0.760593 0.000000
0.301391 0.819007 0.000000
0.380733 0.874985 0.000000
0.503954 0.919891 0.000000
0.708344 0.948346 0.000000
1.000000 0.958889 0.000000
0.000000 0.689215 0.000000
0.025843 0.693736 0.000000
0.051654 0.708344 0.000000
0.077438 0.729574 0.000000
0.104276 0.758672 0.000000
0.133656 0.795362 0.000000
0.168518 0.832889 0.000000
0.213289 0.869625 0.000000
0.273261 0.902762 0.000000
0.356406 0.934582 0.000000
0.483668 0.958884 0.000000
0.693736 0.974158 0.000000
1.000000 0.979909 0.000000
0.000000 1.000000 0.000000
0.020091 1.000000 0.000000
0.041111 1.000000 0.000000
0.063693 1.000000 0.000000
0.087588 1.000000 0.000000
0.116551 1.000000 0.000000
0.152371 1.000000 0.000000
0.199226 1.000000 0.000000
0.262222 1.000000 0.000000
0.347315 1.000000 0.000000
0.476892 1.000000 0.000000
0.689215 1.000000 0.000000
1.000000 1.000000 0.000000
0.000000 0.000000 0.082500
0.310786 0.000000 0.082500
0.523108 0.000000 0.082500
0.652685 0.000000 0.082500
0.737778 0.000000 0.082500
0.800774 0.000000 0.082500
0.847629 0.000000 0.082500
0.883449 0.000000 0.082500
0.912412 0.000000 0.082500
0.936307 0.000000 0.082500
0.958889 0.000000 0.082500
0.979909 0.000000 0.082500
1.000000 0.000000 0.082500
0.000000 0.020091 0.082500
0.306265 0.025843 0.082500
0.516332 0.041116 0.082500
0.643594 0.065418 0.082500
0.726739 0.097238 0.082500
0.786711 0.130375 0.082500
0.831482 0.167111 0.082500
0.866344 0.204639 0.082500
0.895724 0.241329 0.082500
0.922562 0.270427 0.082500
0.948346 0.291657 0.082500
0.974158 0.306265 0.082500
1.000000 0.310786 0.082500
0.000000 0.041111 0.082500
0.291657 0.051654 0.082500
0.496046 0.080109 0.082500
0.619267 0.125015 0.082500
0.698609 0.180993 0.082500
0.754277 0.239407 0.082500
0.794409 0.302886 0.082500
0.826893 0.362953 0.082500
0.854878 0.420002 0.082500
0.886060 0.463715 0.082500
0.919891 0.496046 0.082500
0.958884 0.516332 0.082500
1.000000 0.523108 0.082500
0.000000 0.063693 0.082500
0.270427 0.077438 0.082500
0.463715 0.113940 0.082500
0.579976 0.174349 0.082500
0.653307 0.245947 0.082500
0.700705 0.318901 0.082500
0.730404 0.395365 0.082500
0.759080 0.463769 0.082500
0.785501 0.528450 0.082500
0.825651 0.579976 0.082500
0.874985 0.619267 0.082500
0.934582 0.643594 0.082500
1.000000 0.652685 0.082500
0.000000 0.087588 0.082500
0.241329 0.104276 0.082500
0.420002 0.145122 0.082500
0.528450 0.214499 0.082500
0.597081 0.296173 0.082500
0.634987 0.377578 0.082500
0.655283 0.458977 0.082500
0.679091 0.531148 0.082500
0.703827 0.597081 0.082500
0.754053 0.653307 0.082500
0.819007 0.698609 0.082500
0.902762 0.726739 0.082500
1.000000 0.737778 0.082500
0.000000 0.116551 0.082500
0.204639 0.133656 0.082500
0.362953 0.173107 0.082500
0.463769 0.240920 0.082500
0.531148 0.320909 0.082500
0.562334 0.401942 0.082500
0.579149 0.483935 0.082500
0.598058 0.562334 0.082500
0.622422 0.634987 0.082500
0.681099 0.700705 0.082500
0.760593 0.754277 0.082500
0.869625 0.786711 0.082500
1.000000 0.800774 0.082500
0.000000 0.152371 0.082500
0.167111 0.168518 0.082500
0.302886 0.205591 0.082500
0.395365 0.269596 0.082500
0.458977 0.344717 0.082500
0.483935 0.420851 0.082500
0.500000 0.500000 0.082500
0.516065 0.579149 0.082500
0.541023 0.655283 0.082500
0.604635 0.730404 0.082500
0.697114 0.794409 0.082500
0.832889 0.831482 0.082500
1.000000 0.847629 0.082500
0.000000 0.199226 0.082500
0.130375 0.213289 0.082500
0.239407 0.245723 0.082500
0.318901 0.299295 0.082500
0.377578 0.365013 0.082500
0.401942 0.437666 0.082500
0.420851 0.516065 0.082500
0.437666 0.598058 0.082500
0.468852 0.679091 0.082500
0.536231 0.759080 0.082500
0.637047 0.826893 0.082500
0.795362 0.866344 0.082500
1.000000 0.883449 0.082500
0.000000 0.262222 0.082500
0.097238 0.273261 0.082500
0.180993 0.301391 0.082500
0.245947 0.346693 0.082500
0.296173 0.402919 0.082500
0.320909 0.468852 0.082500
0.344717 0.541023 0.082500
0.365013 0.622422 0.082500
0.402919 0.703827 0.082500
0.471551 0.785501 0.082500
0.579998 0.854878 0.082500
0.758672 0.895724 0.082500
1.000000 0.912412 0.082500
0.000000 0.347315 0.082500
0.065418 0.356406 0.082500
0.125015 0.380733 0.082500
0.174349 0.420024 0.082500
0.214499 0.471551 0.082500
0.240920 0.536231 0.082500
0.269596 0.604635 0.082500
0.299295 0.681099 0.082500
0.346693 0.754053 0.082500
0.420024 0.825651 0.082500
0.536285 0.886060 0.082500
0.729574 0.922562 0.082500
1.000000 0.936307 0.082500
0.000000 0.476892 0.082500
0.041116 0.483668 0.082500
0.080109 0.503954 0.082500
0.113940 0.536285 0.082500
0.145122 0.579998 0.082500
0.173107 0.637047 0.082500
0.205591 0.697114 0.082500
0.245723 0.760593 0.082500
0.301391 0.819007 0.082500
0.380733 0.874985 0.082500
0.503954 0.919891 0.082500
0.708344 0.948346 0.082500
1.000000 0.958889 0.082500
0.000000 0.689215 0.082500
0.025843 0.693736 0.082500
0.051654 0.708344 0.082500
0.077438 0.729574 0.082500
0.104276 0.758672 0.082500
0.133656 0.795362 0.082500
0.168518 0.832889 0.082500
0.213289 0.869625 0.082500
0.273261 0.902762 0.082500
0.356406 0.934582 0.082500
0.483668 0.958884 0.082500
0.693736 0.974158 0.082500
1.000000 0.979909 0.082500
0.000000 1.000000 0.082500
0.020091 1.000000 0.082500
0.041111 1.000000 0.082500
0.063693 1.000000 0.082500
0.087588 1.000000 0.082500
0.116551 1.000000 0.082500
0.152371 1.000000 0.082500
0.199226 1.000000 0.082500
0.262222 1.000000 0.082500
0.347315 1.000000 0.082500
0.476892 1.000000 0.082500
0.689215 1.000000 0.082500
1.000000 1.000000 0.082500
0.000000 0.000000 0.165000
0.310786 0.000000 0.165000
0.523108 0.000000 0.165000
0.652685 0.000000 0.165000
0.737778 0.000000 0.165000
0.800774 0.000000 0.165000
0.847629 0.000000 0.165000
0.883449 0.000000 0.165000
0.912412 0.000000 0.165000
0.936307 0.000000 0.165000
0.958889 0.000000 0.165000
0.979909 0.000000 0.165000
1.000000 0.000000 0.165000
0.000000 0.020091 0.165000
0.306265 0.025843 0.165000
0.516332 0.041116 0.165000
0.643594 0.065418 0.165000
0.726739 0.097238 0.165000
0.786711 0.130375 0.165000
0.831482 0.167111 0.165000
0.866344 0.204639 0.165000
0.895724 0.241329 0.165000
0.922562 0.270427 0.165000
0.948346 0.291657 0.165000
0.974158 0.306265 0.165000
1.000000 0.310786 0.165000
0.000000 0.041111 0.165000
0.291657 0.051654 0.165000
[...]
POINT_DATA 845 
VECTORS pos float 
0.000000 0.000000 0.000000
0.310786 0.000000 0.000000
0.523108 0.000000 0.000000
0.652685 0.000000 0.000000
0.737778 0.000000 0.000000
0.800774 0.000000 0.000000
0.847629 0.000000 0.000000
0.883449 0.000000 0.000000
0.912412 0.000000 0.000000
0.936307 0.000000 0.000000
0.958889 0.000000 0.000000
0.979909 0.000000 0.000000
1.000000 0.000000 0.000000
0.000000 0.020091 0.000000
0.306265 0.025843 0.000000
0.516332 0.041116 0.000000
0.643594 0.065418 0.000000
0.726739 0.097238 0.000000
0.786711 0.130375 0.000000
0.831482 0.167111 0.000000
0.866344 0.204639 0.000000
0.895724 0.241329 0.000000
0.922562 0.270427 0.000000
0.948346 0.291657 0.000000
0.974158 0.306265 0.000000
1.000000 0.310786 0.000000
0.000000 0.041111 0.000000
0.291657 0.051654 0.000000
0.496046 0.080109 0.000000
0.619267 0.125015 0.000000
0.698609 0.180993 0.000000
0.754277 0.239407 0.000000
0.794409 0.302886 0.000000
0.826893 0.362953 0.000000
0.854878 0.420002 0.000000
0.886060 0.463715 0.000000
0.919891 0.496046 0.000000
0.958884 0.516332 0.000000
1.000000 0.523108 0.000000
0.000000 0.063693 0.000000
0.270427 0.077438 0.000000
0.463715 0.113940 0.000000
0.579976 0.174349 0.000000
0.653307 0.245947 0.000000
0.700705 0.318901 0.000000
0.730404 0.395365 0.000000
0.759080 0.463769 0.000000
0.785501 0.528450 0.000000
0.825651 0.579976 0.000000
0.874985 0.619267 0.000000
0.934582 0.643594 0.000000
1.000000 0.652685 0.000000
0.000000 0.087588 0.000000
0.241329 0.104276 0.000000
0.420002 0.145122 0.000000
0.528450 0.214499 0.000000
0.597081 0.296173 0.000000
0.634987 0.377578 0.000000
0.655283 0.458977 0.000000
0.679091 0.531148 0.000000
0.703827 0.597081 0.000000
0.754053 0.653307 0.000000
0.819007 0.698609 0.000000
0.902762 0.726739 0.000000
1.000000 0.737778 0.000000
0.000000 0.116551 0.000000
0.204639 0.133656 0.000000
0.362953 0.173107 0.000000
0.463769 0.240920 0.000000
0.531148 0.320909 0.000000
0.562334 0.401942 0.000000
0.579149 0.483935 0.000000
0.598058 0.562334 0.000000
0.622422 0.634987 0.000000
0.681099 0.700705 0.000000
0.760593 0.754277 0.000000
0.869625 0.786711 0.000000
1.000000 0.800774 0.000000
0.000000 0.152371 0.000000
0.167111 0.168518 0.000000
0.302886 0.205591 0.000000
0.395365 0.269596 0.000000
0.458977 0.344717 0.000000
0.483935 0.420851 0.000000
0.500000 0.500000 0.000000
0.516065 0.579149 0.000000
0.541023 0.655283 0.000000
0.604635 0.730404 0.000000
0.697114 0.794409 0.000000
0.832889 0.831482 0.000000
1.000000 0.847629 0.000000
0.000000 0.199226 0.000000
0.130375 0.213289 0.000000
0.239407 0.245723 0.000000
0.318901 0.299295 0.000000
0.377578 0.365013 0.000000
0.401942 0.437666 0.000000
0.420851 0.516065 0.000000
0.437666 0.598058 0.000000
0.468852 0.679091 0.000000
0.536231 0.759080 0.000000
0.637047 0.826893 0.000000
0.795362 0.866344 0.000000
1.000000 0.883449 0.000000
0.000000 0.262222 0.000000
0.097238 0.273261 0.000000
0.180993 0.301391 0.000000
0.245947 0.346693 0.000000
0.296173 0.402919 0.000000
0.320909 0.468852 0.000000
0.344717 0.541023 0.000000
0.365013 0.622422 0.000000
0.402919 0.703827 0.000000
0.471551 0.785501 0.000000
0.579998 0.854878 0.000000
0.758672 0.895724 0.000000
1.000000 0.912412 0.000000
0.000000 0.347315 0.000000
0.065418 0.356406 0.000000
0.125015 0.380733 0.000000
0.174349 0.420024 0.000000
0.214499 0.471551 0.000000
0.240920 0.536231 0.000000
0.269596 0.604635 0.000000
0.299295 0.681099 0.000000
0.346693 0.754053 0.000000
0.420024 0.825651 0.000000
0.536285 0.886060 0.000000
0.729574 0.922562 0.000000
1.000000 0.936307 0.000000
0.000000 0.476892 0.000000
0.041116 0.483668 0.000000
0.080109 0.503954 0.000000
0.113940 0.536285 0.000000
0.145122 0.579998 0.000000
0.173107 0.637047 0.000000
0.205591 0.697114 0.000000
0.245723 0.760593 0.000000
0.301391 0.819007 0.000000
0.380733 0.874985 0.000000
0.503954 0.919891 0.000000
0.708344 0.948346 0.000000
1.000000 0.958889 0.000000
0.000000 0.689215 0.000000
0.025843 0.693736 0.000000
0.051654 0.708344 0.000000
0.077438 0.729574 0.000000
0.104276 0.758672 0.000000
0.133656 0.795362 0.000000
0.168518 0.832889 0.000000
0.213289 0.869625 0.000000
0.273261 0.902762 0.000000
0.356406 0.934582 0.000000
0.483668 0.958884 0.000000
0.693736 0.974158 0.000000
1.000000 0.979909 0.000000
0.000000 1.000000 0.000000
0.020091 1.000000 0.000000
0.041111 1.000000 0.000000
0.063693 1.000000 0.000000
0.087588 1.000000 0.000000
0.116551 1.000000 0.000000
0.152371 1.000000 0.000000
0.199226 1.000000 0.000000
0.262222 1.000000 0.000000
0.347315 1.000000 0.000000
0.476892 1.000000 0.000000
0.689215 1.000000 0.000000
1.000000 1.000000 0.000000
0.000000 0.000000 0.082500
0.310786 0.000000 0.082500
0.523108 0.000000 0.082500
0.652685 0.000000 0.082500
0.737778 0.000000 0.082500
0.800774 0.000000 0.082500
0.847629 0.000000 0.082500
0.883449 0.000000 0.082500
0.912412 0.000000 0.082500
0.936307 0.000000 0.082500
0.958889 0.000000 0.082500
0.979909 0.000000 0.082500
1.000000 0.000000 0.082500
0.000000 0.020091 0.082500
0.306265 0.025843 0.082500
0.516332 0.041116 0.082500
0.643594 0.065418 0.082500
0.726739 0.097238 0.082500
0.786711 0.130375 0.082500
0.831482 0.167111 0.082500
0.866344 0.204639 0.082500
0.895724 0.241329 0.082500
0.922562 0.270427 0.082500
0.948346 0.291657 0.082500
0.974158 0.306265 0.082500
1.000000 0.310786 0.082500
0.000000 0.041111 0.082500
0.291657 0.051654 0.082500
0.496046 0.080109 0.082500
0.619267 0.125015 0.082500
0.698609 0.180993 0.082500
0.754277 0.239407 0.082500
0.794409 0.302886 0.082500
0.826893 0.362953 0.082500
0.854878 0.420002 0.082500
0.886060 0.463715 0.082500
0.919891 0.496046 0.082500
0.958884 0.516332 0.082500
1.000000 0.523108 0.082500
0.000000 0.063693 0.082500
0.270427 0.077438 0.082500
0.463715 0.113940 0.082500
0.579976 0.174349 0.082500
0.653307 0.245947 0.082500
0.700705 0.318901 0.082500
0.730404 0.395365 0.082500
0.759080 0.463769 0.082500
0.785501 0.528450 0.082500
0.825651 0.579976 0.082500
0.874985 0.619267 0.082500
0.934582 0.643594 0.082500
1.000000 0.652685 0.082500
0.000000 0.087588 0.082500
0.241329 0.104276 0.082500
0.420002 0.145122 0.082500
0.528450 0.214499 0.082500
0.597081 0.296173 0.082500
0.634987 0.377578 0.082500
0.655283 0.458977 0.082500
0.679091 0.531148 0.082500
0.703827 0.597081 0.082500
0.754053 0.653307 0.082500
0.819007 0.698609 0.082500
0.902762 0.726739 0.082500
1.000000 0.737778 0.082500
0.000000 0.116551 0.082500
0.204639 0.133656 0.082500
0.362953 0.173107 0.082500
0.463769 0.240920 0.082500
0.531148 0.320909 0.082500
0.562334 0.401942 0.082500
0.579149 0.483935 0.082500
0.598058 0.562334 0.082500
0.622422 0.634987 0.082500
0.681099 0.700705 0.082500
0.760593 0.754277 0.082500
0.869625 0.786711 0.082500
1.000000 0.800774 0.082500
0.000000 0.152371 0.082500
0.167111 0.168518 0.082500
0.302886 0.205591 0.082500
0.395365 0.269596 0.082500
0.458977 0.344717 0.082500
0.483935 0.420851 0.082500
0.500000 0.500000 0.082500
0.516065 0.579149 0.082500
0.541023 0.655283 0.082500
0.604635 0.730404 0.082500
0.697114 0.794409 0.082500
0.832889 0.831482 0.082500
1.000000 0.847629 0.082500
0.000000 0.199226 0.082500
0.130375 0.213289 0.082500
0.239407 0.245723 0.082500
0.318901 0.299295 0.082500
0.377578 0.365013 0.082500
0.401942 0.437666 0.082500
0.420851 0.516065 0.082500
0.437666 0.598058 0.082500
0.468852 0.679091 0.082500
0.536231 0.759080 0.082500
0.637047 0.826893 0.082500
0.795362 0.866344 0.082500
1.000000 0.883449 0.082500
0.000000 0.262222 0.082500
0.097238 0.273261 0.082500
0.180993 0.301391 0.082500
0.245947 0.346693 0.082500
0.296173 0.402919 0.082500
0.320909 0.468852 0.082500
0.344717 0.541023 0.082500
0.365013 0.622422 0.082500
0.402919 0.703827 0.082500
0.471551 0.785501 0.082500
0.579998 0.854878 0.082500
0.758672 0.895724 0.082500
1.000000 0.912412 0.082500
0.000000 0.347315 0.082500
0.065418 0.356406 0.082500
0.125015 0.380733 0.082500
0.174349 0.420024 0.082500
0.214499 0.471551 0.082500
0.240920 0.536231 0.082500
0.269596 0.604635 0.082500
0.299295 0.681099 0.082500
0.346693 0.754053 0.082500
0.420024 0.825651 0.082500
0.536285 0.886060 0.082500
0.729574 0.922562 0.082500
1.000000 0.936307 0.082500
0.000000 0.476892 0.082500
0.041116 0.483668 0.082500
0.080109 0.503954 0.082500
0.113940 0.536285 0.082500
0.145122 0.579998 0.082500
0.173107 0.637047 0.082500
0.205591 0.697114 0.082500
0.245723 0.760593 0.082500
0.301391 0.819007 0.082500
0.380733 0.874985 0.082500
0.503954 0.919891 0.082500
0.708344 0.948346 0.082500
1.000000 0.958889 0.082500
0.000000 0.689215 0.082500
0.025843 0.693736 0.082500
0.051654 0.708344 0.082500
0.077438 0.729574 0.082500
0.104276 0.758672 0.082500
0.133656 0.795362 0.082500
0.168518 0.832889 0.082500
0.213289 0.869625 0.082500
0.273261 0.902762 0.082500
0.356406 0.934582 0.082500
0.483668 0.958884 0.082500
0.693736 0.974158 0.082500
1.000000 0.979909 0.082500
0.000000 1.000000 0.082500
0.020091 1.000000 0.082500
0.041111 1.000000 0.082500
0.063693 1.000000 0.082500
0.087588 1.000000 0.082500
0.116551 1.000000 0.082500
0.152371 1.000000 0.082500
0.199226 1.000000 0.082500
0.262222 1.000000 0.082500
0.347315 1.000000 0.082500
0.476892 1.000000 0.082500
0.689215 1.000000 0.082500
1.000000 1.000000 0.082500
0.000000 0.000000 0.165000
0.310786 0.000000 0.165000
0.523108 0.000000 0.165000
0.652685 0.000000 0.165000
0.737778 0.000000 0.165000
0.800774 0.000000 0.165000
0.847629 0.000000 0.165000
0.883449 0.000000 0.165000
0.912412 0.000000 0.165000
0.936307 0.000000 0.165000
0.958889 0.000000 0.165000
0.979909 0.000000 0.165000
1.000000 0.000000 0.165000
0.000000 0.020091 0.165000
0.306265 0.025843 0.165000
0.516332 0.041116 0.165000
0.643594 0.065418 0.165000
0.726739 0.097238 0.165000
0.786711 0.130375 0.165000
0.831482 0.167111 0.165000
0.866344 0.204639 0.165000
0.895724 0.241329 0.165000
0.922562 0.270427 0.165000
0.948346 0.291657 0.165000
0.974158 0.306265 0.165000
1.000000 0.310786 0.165000
0.000000 0.041111 0.165000
0.291657 0.051654 0.165000
0.496046 0.080109 0.165000
0.619267 0.125015 0.165000
0.698609 0.180993 0.165000
0.754277 0.239407 0.165000
0.794409 0.302886 0.165000
0.826893 0.362953 0.165000
0.854878 0.420002 0.165000
0.886060 0.463715 0.165000
0.919891 0.496046 0.165000
0.958884 0.516332 0.165000
1.000000 0.523108 0.165000
0.000000 0.063693 0.165000
0.270427 0.077438 0.165000
0.463715 0.113940 0.165000
0.579976 0.174349 0.165000
0.653307 0.245947 0.165000
0.700705 0.318901 0.165000
0.730404 0.395365 0.165000
0.759080 0.463769 0.165000
0.785501 0.528450 0.165000
0.825651 0.579976 0.165000
0.874985 0.619267 0.165000
0.934582 0.643594 0.165000
1.000000 0.652685 0.165000
0.000000 0.087588 0.165000
0.241329 0.104276 0.165000
0.420002 0.145122 0.165000
0.528450 0.214499 0.165000
0.597081 0.296173 0.165000
0.634987 0.377578 0.165000
0.655283 0.458977 0.165000
0.679091 0.531148 0.165000
0.703827 0.597081 0.165000
0.754053 0.653307 0.165000
0.819007 0.698609 0.165000
0.902762 0.726739 0.165000
1.000000 0.737778 0.165000
0.000000 0.116551 0.165000
0.204639 0.133656 0.165000
0.362953 0.173107 0.165000
0.463769 0.240920 0.165000
0.531148 0.320909 0.165000
0.562334 0.401942 0.165000
0.579149 0.483935 0.165000
0.598058 0.562334 0.165000
0.622422 0.634987 0.165000
0.681099 0.700705 0.165000
0.760593 0.754277 0.165000
0.869625 0.786711 0.165000
1.000000 0.800774 0.165000
0.000000 0.152371 0.165000
0.167111 0.168518 0.165000
0.302886 0.205591 0.165000
0.395365 0.269596 0.165000
0.458977 0.344717 0.165000
0.483935 0.420851 0.165000
0.500000 0.500000 0.165000
0.516065 0.579149 0.165000
0.541023 0.655283 0.165000
0.604635 0.730404 0.165000
0.697114 0.794409 0.165000
0.832889 0.831482 0.165000
1.000000 0.847629 0.165000
0.000000 0.199226 0.165000
0.130375 0.213289 0.165000
0.239407 0.245723 0.165000
0.318901 0.299295 0.165000
0.377578 0.365013 0.165000
0.401942 0.437666 0.165000
0.420851 0.516065 0.165000
0.437666 0.598058 0.165000
0.468852 0.679091 0.165000
0.536231 0.759080 0.165000
0.637047 0.826893 0.165000
0.795362 0.866344 0.165000
1.000000 0.883449 0.165000
0.000000 0.262222 0.165000
0.097238 0.273261 0.165000
0.180993 0.301391 0.165000
0.245947 0.346693 0.165000
0.296173 0.402919 0.165000
0.320909 0.468852 0.165000
0.344717 0.541023 0.165000
0.365013 0.622422 0.165000
0.402919 0.703827 0.165000
0.471551 0.785501 0.165000
0.579998 0.854878 0.165000
0.758672 0.895724 0.165000
1.000000 0.912412 0.165000
0.000000 0.347315 0.165000
0.065418 0.356406 0.165000
0.125015 0.380733 0.165000
0.174349 0.420024 0.165000
0.214499 0.471551 0.165000
0.240920 0.536231 0.165000
0.269596 0.604635 0.165000
0.299295 0.681099 0.165000
0.346693 0.754053 0.165000
0.420024 0.825651 0.165000
0.536285 0.886060 0.165000
0.729574 0.922562 0.165000
1.000000 0.936307 0.165000
0.000000 0.476892 0.165000
0.041116 0.483668 0.165000
0.080109 0.503954 0.165000
0.113940 0.536285 0.165000
0.145122 0.579998 0.165000
0.173107 0.637047 0.165000
0.205591 0.697114 0.165000
0.245723 0.760593 0.165000
0.301391 0.819007 0.165000
0.380733 0.874985 0.165000
0.503954 0.919891 0.165000
0.708344 0.948346 0.165000
1.000000 0.958889 0.165000
0.000000 0.689215 0.165000
0.025843 0.693736 0.165000
0.051654 0.708344 0.165000
0.077438 0.729574 0.165000
0.104276 0.758672 0.165000
0.133656 0.795362 0.165000
0.168518 0.832889 0.165000
0.213289 0.869625 0.165000
0.273261 0.902762 0.165000
0.356406 0.934582 0.165000
0.483668 0.958884 0.165000
0.693736 0.974158 0.165000
1.000000 0.979909 0.165000
0.000000 1.000000 0.165000
0.020091 1.000000 0.165000
0.041111 1.000000 0.165000
0.063693 1.000000 0.165000
0.087588 1.000000 0.165000
0.116551 1.000000 0.165000
0.152371 1.000000 0.165000
0.199226 1.000000 0.165000
0.262222 1.000000 0.165000
0.347315 1.000000 0.165000
0.476892 1.000000 0.165000
0.689215 1.000000 0.165000
1.000000 1.000000 0.165000
0.000000 0.000000 0.247500
0.310786 0.000000 0.247500
0.523108 0.000000 0.247500
0.652685 0.000000 0.247500
0.737778 0.000000 0.247500
0.800774 0.000000 0.247500
0.847629 0.000000 0.247500
0.883449 0.000000 0.247500
0.912412 0.000000 0.247500
0.936307 0.000000 0.247500
0.958889 0.000000 0.247500
0.979909 0.000000 0.247500
1.000000 0.000000 0.247500
0.000000 0.020091 0.247500
0.306265 0.025843 0.247500
0.516332 0.041116 0.247500
0.643594 0.065418 0.247500
0.726739 0.097238 0.247500
0.786711 0.130375 0.247500
0.831482 0.167111 0.247500
0.866344 0.204639 0.247500
0.895724 0.241329 0.247500
0.922562 0.270427 0.247500
0.948346 0.291657 0.247500
0.974158 0.306265 0.247500
1.000000 0.310786 0.247500
0.000000 0.041111 0.247500
0.291657 0.051654 0.247500
0.496046 0.080109 0.247500
0.619267 0.125015 0.247500
0.698609 0.180993 0.247500
0.754277 0.239407 0.247500
0.794409 0.302886 0.247500
0.826893 0.362953 0.247500
0.854878 0.420002 0.247500
0.886060 0.463715 0.247500
0.919891 0.496046 0.247500
0.958884 0.516332 0.247500
1.000000 0.523108 0.247500
0.000000 0.063693 0.247500
0.270427 0.077438 0.247500
0.463715 0.113940 0.247500
0.579976 0.174349 0.247500
0.653307 0.245947 0.247500
0.700705 0.318901 0.247500
0.730404 0.395365 0.247500
0.759080 0.463769 0.247500
0.785501 0.528450 0.247500
0.825651 0.579976 0.247500
0.874985 0.619267 0.247500
0.934582 0.643594 0.247500
1.000000 0.652685 0.247500
0.000000 0.087588 0.247500
0.241329 0.104276 0.247500
0.420002 0.145122 0.247500
0.528450 0.214499 0.247500
0.597081 0.296173 0.247500
0.634987 0.377578 0.247500
0.655283 0.458977 0.247500
0.679091 0.531148 0.247500
0.703827 0.597081 0.247500
0.754053 0.653307 0.247500
0.819007 0.698609 0.247500
0.902762 0.726739 0.247500
1.000000 0.737778 0.247500
0.000000 0.116551 0.247500
0.204639 0.133656 0.247500
0.362953 0.173107 0.247500
0.463769 0.240920 0.247500
0.531148 0.320909 0.247500
0.562334 0.401942 0.247500
0.579149 0.483935 0.247500
0.598058 0.562334 0.247500
0.622422 0.634987 0.247500
0.681099 0.700705 0.247500
0.760593 0.754277 0.247500
0.869625 0.786711 0.247500
1.000000 0.800774 0.247500
0.000000 0.152371 0.247500
0.167111 0.168518 0.247500
0.302886 0.205591 0.247500
0.395365 0.269596 0.247500
0.458977 0.344717 0.247500
0.483935 0.420851 0.247500
0.500000 0.500000 0.247500
0.516065 0.579149 0.247500
0.541023 0.655283 0.247500
0.604635 0.730404 0.247500
0.697114 0.794409 0.247500
0.832889 0.831482 0.247500
1.000000 0.847629 0.247500
0.000000 0.199226 0.247500
0.130375 0.213289 0.247500
0.239407 0.245723 0.247500
0.318901 0.299295 0.247500
0.377578 0.365013 0.247500
0.401942 0.437666 0.247500
0.420851 0.516065 0.247500
0.437666 0.598058 0.247500
0.468852 0.679091 0.247500
0.536231 0.759080 0.247500
0.637047 0.826893 0.247500
0.795362 0.866344 0.247500
1.000000 0.883449 0.247500
0.000000 0.262222 0.247500
0.097238 0.273261 0.247500
0.180993 0.301391 0.247500
0.245947 0.346693 0.247500
0.296173 0.402919 0.247500
0.320909 0.468852 0.247500
0.344717 0.541023 0.247500
0.365013 0.622422 0.247500
0.402919 0.703827 0.247500
0.471551 0.785501 0.247500
0.579998 0.854878 0.247500
0.758672 0.895724 0.247500
1.000000 0.912412 0.247500
0.000000 0.347315 0.247500
0.065418 0.356406 0.247500
0.125015 0.380733 0.247500
0.174349 0.420024 0.247500
0.214499 0.471551 0.247500
0.240920 0.536231 0.247500
0.269596 0.604635 0.247500
0.299295 0.681099 0.247500
0.346693 0.754053 0.247500
0.420024 0.825651 0.247500
0.536285 0.886060 0.247500
0.729574 0.922562 0.247500
1.000000 0.936307 0.247500
0.000000 0.476892 0.247500
0.041116 0.483668 0.247500
0.080109 0.503954 0.247500
0.113940 0.536285 0.247500
0.145122 0.579998 0.247500
0.173107 0.637047 0.247500
0.205591 0.697114 0.247500
0.245723 0.760593 0.247500
0.301391 0.819007 0.247500
0.380733 0.874985 0.247500
0.503954 0.919891 0.247500
0.708344 0.948346 0.247500
1.000000 0.958889 0.247500
0.000000 0.689215 0.247500
0.025843 0.693736 0.247500
0.051654 0.708344 0.247500
0.077438 0.729574 0.247500
0.104276 0.758672 0.247500
0.133656 0.795362 0.247500
0.168518 0.832889 0.247500
0.213289 0.869625 0.247500
0.273261 0.902762 0.247500
0.356406 0.934582 0.247500
0.483668 0.958884 0.247500
0.693736 0.974158 0.247500
1.000000 0.979909 0.247500
0.000000 1.000000 0.247500
0.020091 1.000000 0.247500
0.041111 1.000000 0.247500
0.063693 1.000000 0.247500
0.087588 1.000000 0.247500
0.116551 1.000000 0.247500
0.152371 1.000000 0.247500
0.199226 1.000000 0.247500
0.262222 1.000000 0.247500
0.347315 1.000000 0.247500
0.476892 1.000000 0.247500
0.689215 1.000000 0.247500
1.000000 1.000000 0.247500
0.000000 0.000000 0.330000
0.310786 0.000000 0.330000
0.523108 0.000000 0.330000
0.652685 0.000000 0.330000
0.737778 0.000000 0.330000
0.800774 0.000000 0.330000
0.847629 0.000000 0.330000
0.883449 0.000000 0.330000
0.912412 0.000000 0.330000
0.936307 0.000000 0.330000
0.958889 0.000000 0.330000
0.979909 0.000000 0.330000
1.000000 0.000000 0.330000
0.000000 0.020091 0.330000
0.306265 0.025843 0.330000
0.516332 0.041116 0.330000
0.643594 0.065418 0.330000
0.726739 0.097238 0.330000
0.786711 0.130375 0.330000
0.831482 0.167111 0.330000
0.866344 0.204639 0.330000
0.895724 0.241329 0.330000
0.922562 0.270427 0.330000
0.948346 0.291657 0.330000
0.974158 0.306265 0.330000
1.000000 0.310786 0.330000
0.000000 0.041111 0.330000
0.291657 0.051654 0.330000
0.496046 0.080109 0.330000
0.619267 0.125015 0.330000
0.698609 0.180993 0.330000
0.754277 0.239407 0.330000
0.794409 0.302886 0.330000
0.826893 0.362953 0.330000
0.854878 0.420002 0.330000
0.886060 0.463715 0.330000
0.919891 0.496046 0.330000
0.958884 0.516332 0.330000
1.000000 0.523108 0.330000
0.000000 0.063693 0.330000
0.270427 0.077438 0.330000
0.463715 0.113940 0.330000
0.579976 0.174349 0.330000
0.653307 0.245947 0.330000
0.700705 0.318901 0.330000
0.730404 0.395365 0.330000
0.759080 0.463769 0.330000
0.785501 0.528450 0.330000
0.825651 0.579976 0.330000
0.874985 0.619267 0.330000
0.934582 0.643594 0.330000
1.000000 0.652685 0.330000
0.000000 0.087588 0.330000
0.241329 0.104276 0.330000
0.420002 0.145122 0.330000
0.528450 0.214499 0.330000
0.597081 0.296173 0.330000
0.634987 0.377578 0.330000
0.655283 0.458977 0.330000
0.679091 0.531148 0.330000
0.703827 0.597081 0.330000
0.754053 0.653307 0.330000
0.819007 0.698609 0.330000