# vtk DataFile Version 2.0
Mesh for Fierro
ASCII 
DATASET UNSTRUCTURED_GRID

POINTS 845 float
0.000000 0.000000 0.000000
0.468553 0.000000 0.000000
0.706344 0.000000 0.000000
0.790322 0.000000 0.000000
0.849072 0.000000 0.000000
0.886607 0.000000 0.000000
0.913295 0.000000 0.000000
0.933113 0.000000 0.000000
0.949036 0.000000 0.000000
0.962521 0.000000 0.000000
0.974351 0.000000 0.000000
0.987078 0.000000 0.000000
1.000000 0.000000 0.000000
0.000000 0.012922 0.000000
0.463985 0.020043 0.000000
0.692656 0.054201 0.000000
0.777085 0.091163 0.000000
0.832069 0.153086 0.000000
0.864769 0.209078 0.000000
0.888822 0.268890 0.000000
0.908293 0.328697 0.000000
0.924934 0.382011 0.000000
0.942594 0.420491 0.000000
0.960623 0.447317 0.000000
0.979957 0.463985 0.000000
1.000000 0.468553 0.000000
0.000000 0.025649 0.000000
0.447317 0.039377 0.000000
0.666041 0.099846 0.000000
0.755094 0.169012 0.000000
0.794485 0.271639 0.000000
0.823906 0.354050 0.000000
0.836608 0.441165 0.000000
0.844334 0.513757 0.000000
0.851066 0.577261 0.000000
0.870647 0.626407 0.000000
0.900154 0.666041 0.000000
0.945800 0.692656 0.000000
1.000000 0.706344 0.000000
0.000000 0.037479 0.000000
0.420491 0.057406 0.000000
0.626407 0.129353 0.000000
0.712773 0.219187 0.000000
0.737376 0.331642 0.000000
0.756198 0.424143 0.000000
0.748693 0.513970 0.000000
0.746879 0.589358 0.000000
0.748903 0.657935 0.000000
0.780813 0.712773 0.000000
0.830988 0.755094 0.000000
0.908838 0.777085 0.000000
1.000000 0.790322 0.000000
0.000000 0.050964 0.000000
0.382011 0.075066 0.000000
0.577261 0.148934 0.000000
0.657935 0.251097 0.000000
0.675366 0.363962 0.000000
0.677663 0.460325 0.000000
0.653480 0.543187 0.000000
0.644028 0.613765 0.000000
0.636038 0.675366 0.000000
0.668358 0.737376 0.000000
0.728361 0.794485 0.000000
0.846915 0.832069 0.000000
1.000000 0.849073 0.000000
0.000000 0.066887 0.000000
0.328697 0.091707 0.000000
0.513757 0.155666 0.000000
0.589358 0.253121 0.000000
0.613765 0.355972 0.000000
0.604414 0.447808 0.000000
0.575028 0.527356 0.000000
0.552192 0.604414 0.000000
0.539675 0.677663 0.000000
0.575857 0.756198 0.000000
0.645950 0.823906 0.000000
0.790923 0.864769 0.000000
1.000000 0.886607 0.000000
0.000000 0.086705 0.000000
0.268890 0.111178 0.000000
0.441165 0.163392 0.000000
0.513970 0.251307 0.000000
0.543187 0.346520 0.000000
0.527356 0.424972 0.000000
0.500000 0.500000 0.000000
0.472644 0.575028 0.000000
0.456813 0.653480 0.000000
0.486030 0.748693 0.000000
0.558835 0.836608 0.000000
0.731111 0.888822 0.000000
1.000000 0.913295 0.000000
0.000000 0.113393 0.000000
0.209078 0.135231 0.000000
0.354050 0.176094 0.000000
0.424143 0.243802 0.000000
0.460325 0.322337 0.000000
0.447808 0.395586 0.000000
0.424972 0.472644 0.000000
0.395586 0.552192 0.000000
0.386235 0.644028 0.000000
0.410642 0.746879 0.000000
0.486243 0.844334 0.000000
0.671304 0.908293 0.000000
1.000000 0.933113 0.000000
0.000000 0.150928 0.000000
0.153086 0.167931 0.000000
0.271639 0.205515 0.000000
0.331642 0.262624 0.000000
0.363962 0.324633 0.000000
0.355972 0.386235 0.000000
0.346520 0.456813 0.000000
0.322337 0.539675 0.000000
0.324633 0.636038 0.000000
0.342065 0.748903 0.000000
0.422739 0.851066 0.000000
0.617990 0.924934 0.000000
1.000000 0.949036 0.000000
0.000000 0.209678 0.000000
0.091163 0.222915 0.000000
0.169012 0.244906 0.000000
0.219187 0.287227 0.000000
0.251097 0.342065 0.000000
0.253121 0.410642 0.000000
0.251308 0.486030 0.000000
0.243802 0.575857 0.000000
0.262624 0.668358 0.000000
0.287227 0.780813 0.000000
0.373593 0.870647 0.000000
0.579510 0.942594 0.000000
1.000000 0.962521 0.000000
0.000000 0.293656 0.000000
0.054200 0.307344 0.000000
0.099846 0.333959 0.000000
0.129353 0.373593 0.000000
0.148934 0.422739 0.000000
0.155666 0.486243 0.000000
0.163392 0.558835 0.000000
0.176094 0.645950 0.000000
0.205515 0.728361 0.000000
0.244906 0.830988 0.000000
0.333959 0.900154 0.000000
0.552684 0.960623 0.000000
1.000000 0.974351 0.000000
0.000000 0.531448 0.000000
0.020043 0.536016 0.000000
0.039377 0.552684 0.000000
0.057406 0.579510 0.000000
0.075066 0.617990 0.000000
0.091707 0.671304 0.000000
0.111178 0.731111 0.000000
0.135231 0.790923 0.000000
0.167931 0.846915 0.000000
0.222915 0.908838 0.000000
0.307344 0.945800 0.000000
0.536016 0.979957 0.000000
1.000000 0.987078 0.000000
0.000000 1.000000 0.000000
0.012922 1.000000 0.000000
0.025649 1.000000 0.000000
0.037479 1.000000 0.000000
0.050964 1.000000 0.000000
0.066887 1.000000 0.000000
0.086705 1.000000 0.000000
0.113393 1.000000 0.000000
0.150927 1.000000 0.000000
0.209678 1.000000 0.000000
0.293656 1.000000 0.000000
0.531448 1.000000 0.000000
1.000000 1.000000 0.000000
0.000000 0.000000 0.082500
0.468553 0.000000 0.082500
0.706344 0.000000 0.082500
0.790322 0.000000 0.082500
0.849072 0.000000 0.082500
0.886607 0.000000 0.082500
0.913295 0.000000 0.082500
0.933113 0.000000 0.082500
0.949036 0.000000 0.082500
0.962521 0.000000 0.082500
0.974351 0.000000 0.082500
0.987078 0.000000 0.082500
1.000000 0.000000 0.082500
0.000000 0.012922 0.082500
0.463985 0.020043 0.082500
0.692656 0.054201 0.082500
0.777085 0.091163 0.082500
0.832069 0.153086 0.082500
0.864769 0.209078 0.082500
0.888822 0.268890 0.082500
0.908293 0.328697 0.082500
0.924934 0.382011 0.082500
0.942594 0.420491 0.082500
0.960623 0.447317 0.082500
0.979957 0.463985 0.082500
1.000000 0.468553 0.082500
0.000000 0.025649 0.082500
0.447317 0.039377 0.082500
0.666041 0.099846 0.082500
0.755094 0.169012 0.082500
0.794485 0.271639 0.082500
0.823906 0.354050 0.082500
0.836608 0.441165 0.082500
0.844334 0.513757 0.082500
0.851066 0.577261 0.082500
0.870647 0.626407 0.082500
0.900154 0.666041 0.082500
0.945800 0.692656 0.082500
1.000000 0.706344 0.082500
0.000000 0.037479 0.082500
0.420491 0.057406 0.082500
0.626407 0.129353 0.082500
0.712773 0.219187 0.082500
0.737376 0.331642 0.082500
0.756198 0.424143 0.082500
0.748693 0.513970 0.082500
0.746879 0.589358 0.082500
0.748903 0.657935 0.082500
0.780813 0.712773 0.082500
0.830988 0.755094 0.082500
0.908838 0.777085 0.082500
1.000000 0.790322 0.082500
0.000000 0.050964 0.082500
0.382011 0.075066 0.082500
0.577261 0.148934 0.082500
0.657935 0.251097 0.082500
0.675366 0.363962 0.082500
0.677663 0.460325 0.082500
0.653480 0.543187 0.082500
0.644028 0.613765 0.082500
0.636038 0.675366 0.082500
0.668358 0.737376 0.082500
0.728361 0.794485 0.082500
0.846915 0.832069 0.082500
1.000000 0.849073 0.082500
0.000000 0.066887 0.082500
0.328697 0.091707 0.082500
0.513757 0.155666 0.082500
0.589358 0.253121 0.082500
0.613765 0.355972 0.082500
0.604414 0.447808 0.082500
0.575028 0.527356 0.082500
0.552192 0.604414 0.082500
0.539675 0.677663 0.082500
0.575857 0.756198 0.082500
0.645950 0.823906 0.082500
0.790923 0.864769 0.082500
1.000000 0.886607 0.082500
0.000000 0.086705 0.082500
0.268890 0.111178 0.082500
0.441165 0.163392 0.082500
0.513970 0.251307 0.082500
0.543187 0.346520 0.082500
0.527356 0.424972 0.082500
0.500000 0.500000 0.082500
0.472644 0.575028 0.082500
0.456813 0.653480 0.082500
0.486030 0.748693 0.082500
0.558835 0.836608 0.082500
0.731111 0.888822 0.082500
1.000000 0.913295 0.082500
0.000000 0.113393 0.082500
0.209078 0.135231 0.082500
0.354050 0.176094 0.082500
0.424143 0.243802 0.082500
0.460325 0.322337 0.082500
0.447808 0.395586 0.082500
0.424972 0.472644 0.082500
0.395586 0.552192 0.082500
0.386235 0.644028 0.082500
0.410642 0.746879 0.082500
0.486243 0.844334 0.082500
0.671304 0.908293 0.082500
1.000000 0.933113 0.082500
0.000000 0.150928 0.082500
0.153086 0.167931 0.082500
0.271639 0.205515 0.082500
0.331642 0.262624 0.082500
0.363962 0.324633 0.082500
0.355972 0.386235 0.082500
0.346520 0.456813 0.082500
0.322337 0.539675 0.082500
0.324633 0.636038 0.082500
0.342065 0.748903 0.082500
0.422739 0.851066 0.082500
0.617990 0.924934 0.082500
1.000000 0.949036 0.082500
0.000000 0.209678 0.082500
0.091163 0.222915 0.082500
0.169012 0.244906 0.082500
0.219187 0.287227 0.082500
0.251097 0.342065 0.082500
0.253121 0.410642 0.082500
0.251308 0.486030 0.082500
0.243802 0.575857 0.082500
0.262624 0.668358 0.082500
0.287227 0.780813 0.082500
0.373593 0.870647 0.082500
0.579510 0.942594 0.082500
1.000000 0.962521 0.082500
0.000000 0.293656 0.082500
0.054200 0.307344 0.082500
0.099846 0.333959 0.082500
0.129353 0.373593 0.082500
0.148934 0.422739 0.082500
0.155666 0.486243 0.082500
0.163392 0.558835 0.082500
0.176094 0.645950 0.082500
0.205515 0.728361 0.082500
0.244906 0.830988 0.082500
0.333959 0.900154 0.082500
0.552684 0.960623 0.082500
1.000000 0.974351 0.082500
0.000000 0.531448 0.082500
0.020043 0.536016 0.082500
0.039377 0.552684 0.082500
0.057406 0.579510 0.082500
0.075066 0.617990 0.082500
0.091707 0.671304 0.082500
0.111178 0.731111 0.082500
0.135231 0.790923 0.082500
0.167931 0.846915 0.082500
0.222915 0.908838 0.082500
0.307344 0.945800 0.082500
0.536016 0.979957 0.082500
1.000000 0.987078 0.082500
0.000000 1.000000 0.082500
0.012922 1.000000 0.082500
0.025649 1.000000 0.082500
0.037479 1.000000 0.082500
0.050964 1.000000 0.082500
0.066887 1.000000 0.082500
0.086705 1.000000 0.082500
0.113393 1.000000 0.082500
0.150927 1.000000 0.082500
0.209678 1.000000 0.082500
0.293656 1.000000 0.082500
0.531448 1.000000 0.082500
1.000000 1.000000 0.082500
0.000000 0.000000 0.165000
0.468553 0.000000 0.165000
0.706344 0.000000 0.165000
0.790322 0.000000 0.165000
0.849072 0.000000 0.165000
0.886607 0.000000 0.165000
0.913295 0.000000 0.165000
0.933113 0.000000 0.165000
0.949036 0.000000 0.165000
0.962521 0.000000 0.165000
0.974351 0.000000 0.165000
0.987078 0.000000 0.165000
1.000000 0.000000 0.165000
0.000000 0.012922 0.165000
0.463985 0.020043 0.165000
0.692656 0.054201 0.165000
0.777085 0.091163 0.165000
0.832069 0.153086 0.165000
0.864769 0.209078 0.165000
0.888822 0.268890 0.165000
0.908293 0.328697 0.165000
0.924934 0.382011 0.165000
0.942594 0.420491 0.165000
0.960623 0.447317 0.165000
0.979957 0.463985 0.165000
1.000000 0.468553 0.165000
0.000000 0.025649 0.165000
0.447317 0.039377 0.165000
[...]
POINT_DATA 845 
VECTORS pos float 
0.000000 0.000000 0.000000
0.468553 0.000000 0.000000
0.706344 0.000000 0.000000
0.790322 0.000000 0.000000
0.849072 0.000000 0.000000
0.886607 0.000000 0.000000
0.913295 0.000000 0.000000
0.933113 0.000000 0.000000
0.949036 0.000000 0.000000
0.962521 0.000000 0.000000
0.974351 0.000000 0.000000
0.987078 0.000000 0.000000
1.000000 0.000000 0.000000
0.000000 0.012922 0.000000
0.463985 0.020043 0.000000
0.692656 0.054201 0.000000
0.777085 0.091163 0.000000
0.832069 0.153086 0.000000
0.864769 0.209078 0.000000
0.888822 0.268890 0.000000
0.908293 0.328697 0.000000
0.924934 0.382011 0.000000
0.942594 0.420491 0.000000
0.960623 0.447317 0.000000
0.979957 0.463985 0.000000
1.000000 0.468553 0.000000
0.000000 0.025649 0.000000
0.447317 0.039377 0.000000
0.666041 0.099846 0.000000
0.755094 0.169012 0.000000
0.794485 0.271639 0.000000
0.823906 0.354050 0.000000
0.836608 0.441165 0.000000
0.844334 0.513757 0.000000
0.851066 0.577261 0.000000
0.870647 0.626407 0.000000
0.900154 0.666041 0.000000
0.945800 0.692656 0.000000
1.000000 0.706344 0.000000
0.000000 0.037479 0.000000
0.420491 0.057406 0.000000
0.626407 0.129353 0.000000
0.712773 0.219187 0.000000
0.737376 0.331642 0.000000
0.756198 0.424143 0.000000
0.748693 0.513970 0.000000
0.746879 0.589358 0.000000
0.748903 0.657935 0.000000
0.780813 0.712773 0.000000
0.830988 0.755094 0.000000
0.908838 0.777085 0.000000
1.000000 0.790322 0.000000
0.000000 0.050964 0.000000
0.382011 0.075066 0.000000
0.577261 0.148934 0.000000
0.657935 0.251097 0.000000
0.675366 0.363962 0.000000
0.677663 0.460325 0.000000
0.653480 0.543187 0.000000
0.644028 0.613765 0.000000
0.636038 0.675366 0.000000
0.668358 0.737376 0.000000
0.728361 0.794485 0.000000
0.846915 0.832069 0.000000
1.000000 0.849073 0.000000
0.000000 0.066887 0.000000
0.328697 0.091707 0.000000
0.513757 0.155666 0.000000
0.589358 0.253121 0.000000
0.613765 0.355972 0.000000
0.604414 0.447808 0.000000
0.575028 0.527356 0.000000
0.552192 0.604414 0.000000
0.539675 0.677663 0.000000
0.575857 0.756198 0.000000
0.645950 0.823906 0.000000
0.790923 0.864769 0.000000
1.000000 0.886607 0.000000
0.000000 0.086705 0.000000
0.268890 0.111178 0.000000
0.441165 0.163392 0.000000
0.513970 0.251307 0.000000
0.543187 0.346520 0.000000
0.527356 0.424972 0.000000
0.500000 0.500000 0.000000
0.472644 0.575028 0.000000
0.456813 0.653480 0.000000
0.486030 0.748693 0.000000
0.558835 0.836608 0.000000
0.731111 0.888822 0.000000
1.000000 0.913295 0.000000
0.000000 0.113393 0.000000
0.209078 0.135231 0.000000
0.354050 0.176094 0.000000
0.424143 0.243802 0.000000
0.460325 0.322337 0.000000
0.447808 0.395586 0.000000
0.424972 0.472644 0.000000
0.395586 0.552192 0.000000
0.386235 0.644028 0.000000
0.410642 0.746879 0.000000
0.486243 0.844334 0.000000
0.671304 0.908293 0.000000
1.000000 0.933113 0.000000
0.000000 0.150928 0.000000
0.153086 0.167931 0.000000
0.271639 0.205515 0.000000
0.331642 0.262624 0.000000
0.363962 0.324633 0.000000
0.355972 0.386235 0.000000
0.346520 0.456813 0.000000
0.322337 0.539675 0.000000
0.324633 0.636038 0.000000
0.342065 0.748903 0.000000
0.422739 0.851066 0.000000
0.617990 0.924934 0.000000
1.000000 0.949036 0.000000
0.000000 0.209678 0.000000
0.091163 0.222915 0.000000
0.169012 0.244906 0.000000
0.219187 0.287227 0.000000
0.251097 0.342065 0.000000
0.253121 0.410642 0.000000
0.251308 0.486030 0.000000
0.243802 0.575857 0.000000
0.262624 0.668358 0.000000
0.287227 0.780813 0.000000
0.373593 0.870647 0.000000
0.579510 0.942594 0.000000
1.000000 0.962521 0.000000
0.000000 0.293656 0.000000
0.054200 0.307344 0.000000
0.099846 0.333959 0.000000
0.129353 0.373593 0.000000
0.148934 0.422739 0.000000
0.155666 0.486243 0.000000
0.163392 0.558835 0.000000
0.176094 0.645950 0.000000
0.205515 0.728361 0.000000
0.244906 0.830988 0.000000
0.333959 0.900154 0.000000
0.552684 0.960623 0.000000
1.000000 0.974351 0.000000
0.000000 0.531448 0.000000
0.020043 0.536016 0.000000
0.039377 0.552684 0.000000
0.057406 0.579510 0.000000
0.075066 0.617990 0.000000
0.091707 0.671304 0.000000
0.111178 0.731111 0.000000
0.135231 0.790923 0.000000
0.167931 0.846915 0.000000
0.222915 0.908838 0.000000
0.307344 0.945800 0.000000
0.536016 0.979957 0.000000
1.000000 0.987078 0.000000
0.000000 1.000000 0.000000
0.012922 1.000000 0.000000
0.025649 1.000000 0.000000
0.037479 1.000000 0.000000
0.050964 1.000000 0.000000
0.066887 1.000000 0.000000
0.086705 1.000000 0.000000
0.113393 1.000000 0.000000
0.150927 1.000000 0.000000
0.209678 1.000000 0.000000
0.293656 1.000000 0.000000
0.531448 1.000000 0.000000
1.000000 1.000000 0.000000
0.000000 0.000000 0.082500
0.468553 0.000000 0.082500
0.706344 0.000000 0.082500
0.790322 0.000000 0.082500
0.849072 0.000000 0.082500
0.886607 0.000000 0.082500
0.913295 0.000000 0.082500
0.933113 0.000000 0.082500
0.949036 0.000000 0.082500
0.962521 0.000000 0.082500
0.974351 0.000000 0.082500
0.987078 0.000000 0.082500
1.000000 0.000000 0.082500
0.000000 0.012922 0.082500
0.463985 0.020043 0.082500
0.692656 0.054201 0.082500
0.777085 0.091163 0.082500
0.832069 0.153086 0.082500
0.864769 0.209078 0.082500
0.888822 0.268890 0.082500
0.908293 0.328697 0.082500
0.924934 0.382011 0.082500
0.942594 0.420491 0.082500
0.960623 0.447317 0.082500
0.979957 0.463985 0.082500
1.000000 0.468553 0.082500
0.000000 0.025649 0.082500
0.447317 0.039377 0.082500
0.666041 0.099846 0.082500
0.755094 0.169012 0.082500
0.794485 0.271639 0.082500
0.823906 0.354050 0.082500
0.836608 0.441165 0.082500
0.844334 0.513757 0.082500
0.851066 0.577261 0.082500
0.870647 0.626407 0.082500
0.900154 0.666041 0.082500
0.945800 0.692656 0.082500
1.000000 0.706344 0.082500
0.000000 0.037479 0.082500
0.420491 0.057406 0.082500
0.626407 0.129353 0.082500
0.712773 0.219187 0.082500
0.737376 0.331642 0.082500
0.756198 0.424143 0.082500
0.748693 0.513970 0.082500
0.746879 0.589358 0.082500
0.748903 0.657935 0.082500
0.780813 0.712773 0.082500
0.830988 0.755094 0.082500
0.908838 0.777085 0.082500
1.000000 0.790322 0.082500
0.000000 0.050964 0.082500
0.382011 0.075066 0.082500
0.577261 0.148934 0.082500
0.657935 0.251097 0.082500
0.675366 0.363962 0.082500
0.677663 0.460325 0.082500
0.653480 0.543187 0.082500
0.644028 0.613765 0.082500
0.636038 0.675366 0.082500
0.668358 0.737376 0.082500
0.728361 0.794485 0.082500
0.846915 0.832069 0.082500
1.000000 0.849073 0.082500
0.000000 0.066887 0.082500
0.328697 0.091707 0.082500
0.513757 0.155666 0.082500
0.589358 0.253121 0.082500
0.613765 0.355972 0.082500
0.604414 0.447808 0.082500
0.575028 0.527356 0.082500
0.552192 0.604414 0.082500
0.539675 0.677663 0.082500
0.575857 0.756198 0.082500
0.645950 0.823906 0.082500
0.790923 0.864769 0.082500
1.000000 0.886607 0.082500
0.000000 0.086705 0.082500
0.268890 0.111178 0.082500
0.441165 0.163392 0.082500
0.513970 0.251307 0.082500
0.543187 0.346520 0.082500
0.527356 0.424972 0.082500
0.500000 0.500000 0.082500
0.472644 0.575028 0.082500
0.456813 0.653480 0.082500
0.486030 0.748693 0.082500
0.558835 0.836608 0.082500
0.731111 0.888822 0.082500
1.000000 0.913295 0.082500
0.000000 0.113393 0.082500
0.209078 0.135231 0.082500
0.354050 0.176094 0.082500
0.424143 0.243802 0.082500
0.460325 0.322337 0.082500
0.447808 0.395586 0.082500
0.424972 0.472644 0.082500
0.395586 0.552192 0.082500
0.386235 0.644028 0.082500
0.410642 0.746879 0.082500
0.486243 0.844334 0.082500
0.671304 0.908293 0.082500
1.000000 0.933113 0.082500
0.000000 0.150928 0.082500
0.153086 0.167931 0.082500
0.271639 0.205515 0.082500
0.331642 0.262624 0.082500
0.363962 0.324633 0.082500
0.355972 0.386235 0.082500
0.346520 0.456813 0.082500
0.322337 0.539675 0.082500
0.324633 0.636038 0.082500
0.342065 0.748903 0.082500
0.422739 0.851066 0.082500
0.617990 0.924934 0.082500
1.000000 0.949036 0.082500
0.000000 0.209678 0.082500
0.091163 0.222915 0.082500
0.169012 0.244906 0.082500
0.219187 0.287227 0.082500
0.251097 0.342065 0.082500
0.253121 0.410642 0.082500
0.251308 0.486030 0.082500
0.243802 0.575857 0.082500
0.262624 0.668358 0.082500
0.287227 0.780813 0.082500
0.373593 0.870647 0.082500
0.579510 0.942594 0.082500
1.000000 0.962521 0.082500
0.000000 0.293656 0.082500
0.054200 0.307344 0.082500
0.099846 0.333959 0.082500
0.129353 0.373593 0.082500
0.148934 0.422739 0.082500
0.155666 0.486243 0.082500
0.163392 0.558835 0.082500
0.176094 0.645950 0.082500
0.205515 0.728361 0.082500
0.244906 0.830988 0.082500
0.333959 0.900154 0.082500
0.552684 0.960623 0.082500
1.000000 0.974351 0.082500
0.000000 0.531448 0.082500
0.020043 0.536016 0.082500
0.039377 0.552684 0.082500
0.057406 0.579510 0.082500
0.075066 0.617990 0.082500
0.091707 0.671304 0.082500
0.111178 0.731111 0.082500
0.135231 0.790923 0.082500
0.167931 0.846915 0.082500
0.222915 0.908838 0.082500
0.307344 0.945800 0.082500
0.536016 0.979957 0.082500
1.000000 0.987078 0.082500
0.000000 1.000000 0.082500
0.012922 1.000000 0.082500
0.025649 1.000000 0.082500
0.037479 1.000000 0.082500
0.050964 1.000000 0.082500
0.066887 1.000000 0.082500
0.086705 1.000000 0.082500
0.113393 1.000000 0.082500
0.150927 1.000000 0.082500
0.209678 1.000000 0.082500
0.293656 1.000000 0.082500
0.531448 1.000000 0.082500
1.000000 1.000000 0.082500
0.000000 0.000000 0.165000
0.468553 0.000000 0.165000
0.706344 0.000000 0.165000
0.790322 0.000000 0.165000
0.849072 0.000000 0.165000
0.886607 0.000000 0.165000
0.913295 0.000000 0.165000
0.933113 0.000000 0.165000
0.949036 0.000000 0.165000
0.962521 0.000000 0.165000
0.974351 0.000000 0.165000
0.987078 0.000000 0.165000
1.000000 0.000000 0.165000
0.000000 0.012922 0.165000
0.463985 0.020043 0.165000
0.692656 0.054201 0.165000
0.777085 0.091163 0.165000
0.832069 0.153086 0.165000
0.864769 0.209078 0.165000
0.888822 0.268890 0.165000
0.908293 0.328697 0.165000
0.924934 0.382011 0.165000
0.942594 0.420491 0.165000
0.960623 0.447317 0.165000
0.979957 0.463985 0.165000
1.000000 0.468553 0.165000
0.000000 0.025649 0.165000
0.447317 0.039377 0.165000
0.666041 0.099846 0.165000
0.755094 0.169012 0.165000
0.794485 0.271639 0.165000
0.823906 0.354050 0.165000
0.836608 0.441165 0.165000
0.844334 0.513757 0.165000
0.851066 0.577261 0.165000
0.870647 0.626407 0.165000
0.900154 0.666041 0.165000
0.945800 0.692656 0.165000
1.000000 0.706344 0.165000
0.000000 0.037479 0.165000
0.420491 0.057406 0.165000
0.626407 0.129353 0.165000
0.712773 0.219187 0.165000
0.737376 0.331642 0.165000
0.756198 0.424143 0.165000
0.748693 0.513970 0.165000
0.746879 0.589358 0.165000
0.748903 0.657935 0.165000
0.780813 0.712773 0.165000
0.830988 0.755094 0.165000
0.908838 0.777085 0.165000
1.000000 0.790322 0.165000
0.000000 0.050964 0.165000
0.382011 0.075066 0.165000
0.577261 0.148934 0.165000
0.657935 0.251097 0.165000
0.675366 0.363962 0.165000
0.677663 0.460325 0.165000
0.653480 0.543187 0.165000
0.644028 0.613765 0.165000
0.636038 0.675366 0.165000
0.668358 0.737376 0.165000
0.728361 0.794485 0.165000
0.846915 0.832069 0.165000
1.000000 0.849073 0.165000
0.000000 0.066887 0.165000
0.328697 0.091707 0.165000
0.513757 0.155666 0.165000
0.589358 0.253121 0.165000
0.613765 0.355972 0.165000
0.604414 0.447808 0.165000
0.575028 0.527356 0.165000
0.552192 0.604414 0.165000
0.539675 0.677663 0.165000
0.575857 0.756198 0.165000
0.645950 0.823906 0.165000
0.790923 0.864769 0.165000
1.000000 0.886607 0.165000
0.000000 0.086705 0.165000
0.268890 0.111178 0.165000
0.441165 0.163392 0.165000
0.513970 0.251307 0.165000
0.543187 0.346520 0.165000
0.527356 0.424972 0.165000
0.500000 0.500000 0.165000
0.472644 0.575028 0.165000
0.456813 0.653480 0.165000
0.486030 0.748693 0.165000
0.558835 0.836608 0.165000
0.731111 0.888822 0.165000
1.000000 0.913295 0.165000
0.000000 0.113393 0.165000
0.209078 0.135231 0.165000
0.354050 0.176094 0.165000
0.424143 0.243802 0.165000
0.460325 0.322337 0.165000
0.447808 0.395586 0.165000
0.424972 0.472644 0.165000
0.395586 0.552192 0.165000
0.386235 0.644028 0.165000
0.410642 0.746879 0.165000
0.486243 0.844334 0.165000
0.671304 0.908293 0.165000
1.000000 0.933113 0.165000
0.000000 0.150928 0.165000
0.153086 0.167931 0.165000
0.271639 0.205515 0.165000
0.331642 0.262624 0.165000
0.363962 0.324633 0.165000
0.355972 0.386235 0.165000
0.346520 0.456813 0.165000
0.322337 0.539675 0.165000
0.324633 0.636038 0.165000
0.342065 0.748903 0.165000
0.422739 0.851066 0.165000
0.617990 0.924934 0.165000
1.000000 0.949036 0.165000
0.000000 0.209678 0.165000
0.091163 0.222915 0.165000
0.169012 0.244906 0.165000
0.219187 0.287227 0.165000
0.251097 0.342065 0.165000
0.253121 0.410642 0.165000
0.251308 0.486030 0.165000
0.243802 0.575857 0.165000
0.262624 0.668358 0.165000
0.287227 0.780813 0.165000
0.373593 0.870647 0.165000
0.579510 0.942594 0.165000
1.000000 0.962521 0.165000
0.000000 0.293656 0.165000
0.054200 0.307344 0.165000
0.099846 0.333959 0.165000
0.129353 0.373593 0.165000
0.148934 0.422739 0.165000
0.155666 0.486243 0.165000
0.163392 0.558835 0.165000
0.176094 0.645950 0.165000
0.205515 0.728361 0.165000
0.244906 0.830988 0.165000
0.333959 0.900154 0.165000
0.552684 0.960623 0.165000
1.000000 0.974351 0.165000
0.000000 0.531448 0.165000
0.020043 0.536016 0.165000
0.039377 0.552684 0.165000
0.057406 0.579510 0.165000
0.075066 0.617990 0.165000
0.091707 0.671304 0.165000
0.111178 0.731111 0.165000
0.135231 0.790923 0.165000
0.167931 0.846915 0.165000
0.222915 0.908838 0.165000
0.307344 0.945800 0.165000
0.536016 0.979957 0.165000
1.000000 0.987078 0.165000
0.000000 1.000000 0.165000
0.012922 1.000000 0.165000
0.025649 1.000000 0.165000
0.037479 1.000000 0.165000
0.050964 1.000000 0.165000
0.066887 1.000000 0.165000
0.086705 1.000000 0.165000
0.113393 1.000000 0.165000
0.150927 1.000000 0.165000
0.209678 1.000000 0.165000
0.293656 1.000000 0.165000
0.531448 1.000000 0.165000
1.000000 1.000000 0.165000
0.000000 0.000000 0.247500
0.468553 0.000000 0.247500
0.706344 0.000000 0.247500
0.790322 0.000000 0.247500
0.849072 0.000000 0.247500
0.886607 0.000000 0.247500
0.913295 0.000000 0.247500
0.933113 0.000000 0.247500
0.949036 0.000000 0.247500
0.962521 0.000000 0.247500
0.974351 0.000000 0.247500
0.987078 0.000000 0.247500
1.000000 0.000000 0.247500
0.000000 0.012922 0.247500
0.463985 0.020043 0.247500
0.692656 0.054201 0.247500
0.777085 0.091163 0.247500
0.832069 0.153086 0.247500
0.864769 0.209078 0.247500
0.888822 0.268890 0.247500
0.908293 0.328697 0.247500
0.924934 0.382011 0.247500
0.942594 0.420491 0.247500
0.960623 0.447317 0.247500
0.979957 0.463985 0.247500
1.000000 0.468553 0.247500
0.000000 0.025649 0.247500
0.447317 0.039377 0.247500
0.666041 0.099846 0.247500
0.755094 0.169012 0.247500
0.794485 0.271639 0.247500
0.823906 0.354050 0.247500
0.836608 0.441165 0.247500
0.844334 0.513757 0.247500
0.851066 0.577261 0.247500
0.870647 0.626407 0.247500
0.900154 0.666041 0.247500
0.945800 0.692656 0.247500
1.000000 0.706344 0.247500
0.000000 0.037479 0.247500
0.420491 0.057406 0.247500
0.626407 0.129353 0.247500
0.712773 0.219187 0.247500
0.737376 0.331642 0.247500
0.756198 0.424143 0.247500
0.748693 0.513970 0.247500
0.746879 0.589358 0.247500
0.748903 0.657935 0.247500
0.780813 0.712773 0.247500
0.830988 0.755094 0.247500
0.908838 0.777085 0.247500
1.000000 0.790322 0.247500
0.000000 0.050964 0.247500
0.382011 0.075066 0.247500
0.577261 0.148934 0.247500
0.657935 0.251097 0.247500
0.675366 0.363962 0.247500
0.677663 0.460325 0.247500
0.653480 0.543187 0.247500
0.644028 0.613765 0.247500
0.636038 0.675366 0.247500
0.668358 0.737376 0.247500
0.728361 0.794485 0.247500
0.846915 0.832069 0.247500
1.000000 0.849073 0.247500
0.000000 0.066887 0.247500
0.328697 0.091707 0.247500
0.513757 0.155666 0.247500
0.589358 0.253121 0.247500
0.613765 0.355972 0.247500
0.604414 0.447808 0.247500
0.575028 0.527356 0.247500
0.552192 0.604414 0.247500
0.539675 0.677663 0.247500
0.575857 0.756198 0.247500
0.645950 0.823906 0.247500
0.790923 0.864769 0.247500
1.000000 0.886607 0.247500
0.000000 0.086705 0.247500
0.268890 0.111178 0.247500
0.441165 0.163392 0.247500
0.513970 0.251307 0.247500
0.543187 0.346520 0.247500
0.527356 0.424972 0.247500
0.500000 0.500000 0.247500
0.472644 0.575028 0.247500
0.456813 0.653480 0.247500
0.486030 0.748693 0.247500
0.558835 0.836608 0.247500
0.731111 0.888822 0.247500
1.000000 0.913295 0.247500
0.000000 0.113393 0.247500
0.209078 0.135231 0.247500
0.354050 0.176094 0.247500
0.424143 0.243802 0.247500
0.460325 0.322337 0.247500
0.447808 0.395586 0.247500
0.424972 0.472644 0.247500
0.395586 0.552192 0.247500
0.386235 0.644028 0.247500
0.410642 0.746879 0.247500
0.486243 0.844334 0.247500
0.671304 0.908293 0.247500
1.000000 0.933113 0.247500
0.000000 0.150928 0.247500
0.153086 0.167931 0.247500
0.271639 0.205515 0.247500
0.331642 0.262624 0.247500
0.363962 0.324633 0.247500
0.355972 0.386235 0.247500
0.346520 0.456813 0.247500
0.322337 0.539675 0.247500
0.324633 0.636038 0.247500
0.342065 0.748903 0.247500
0.422739 0.851066 0.247500
0.617990 0.924934 0.247500
1.000000 0.949036 0.247500
0.000000 0.209678 0.247500
0.091163 0.222915 0.247500
0.169012 0.244906 0.247500
0.219187 0.287227 0.247500
0.251097 0.342065 0.247500
0.253121 0.410642 0.247500
0.251308 0.486030 0.247500
0.243802 0.575857 0.247500
0.262624 0.668358 0.247500
0.287227 0.780813 0.247500
0.373593 0.870647 0.247500
0.579510 0.942594 0.247500
1.000000 0.962521 0.247500
0.000000 0.293656 0.247500
0.054200 0.307344 0.247500
0.099846 0.333959 0.247500
0.129353 0.373593 0.247500
0.148934 0.422739 0.247500
0.155666 0.486243 0.247500
0.163392 0.558835 0.247500
0.176094 0.645950 0.247500
0.205515 0.728361 0.247500
0.244906 0.830988 0.247500
0.333959 0.900154 0.247500
0.552684 0.960623 0.247500
1.000000 0.974351 0.247500
0.000000 0.531448 0.247500
0.020043 0.536016 0.247500
0.039377 0.552684 0.247500
0.057406 0.579510 0.247500
0.075066 0.617990 0.247500
0.091707 0.671304 0.247500
0.111178 0.731111 0.247500
0.135231 0.790923 0.247500
0.167931 0.846915 0.247500
0.222915 0.908838 0.247500
0.307344 0.945800 0.247500
0.536016 0.979957 0.247500
1.000000 0.987078 0.247500
0.000000 1.000000 0.247500
0.012922 1.000000 0.247500
0.025649 1.000000 0.247500
0.037479 1.000000 0.247500
0.050964 1.000000 0.247500
0.066887 1.000000 0.247500
0.086705 1.000000 0.247500
0.113393 1.000000 0.247500
0.150927 1.000000 0.247500
0.209678 1.000000 0.247500
0.293656 1.000000 0.247500
0.531448 1.000000 0.247500
1.000000 1.000000 0.247500
0.000000 0.000000 0.330000
0.468553 0.000000 0.330000
0.706344 0.000000 0.330000
0.790322 0.000000 0.330000
0.849072 0.000000 0.330000
0.886607 0.000000 0.330000
0.913295 0.000000 0.330000
0.933113 0.000000 0.330000
0.949036 0.000000 0.330000
0.962521 0.000000 0.330000
0.974351 0.000000 0.330000
0.987078 0.000000 0.330000
1.000000 0.000000 0.330000
0.000000 0.012922 0.330000
0.463985 0.020043 0.330000
0.692656 0.054201 0.330000
0.777085 0.091163 0.330000
0.832069 0.153086 0.330000
0.864769 0.209078 0.330000
0.888822 0.268890 0.330000
0.908293 0.328697 0.330000
0.924934 0.382011 0.330000
0.942594 0.420491 0.330000
0.960623 0.447317 0.330000
0.979957 0.463985 0.330000
1.000000 0.468553 0.330000
0.000000 0.025649 0.330000
0.447317 0.039377 0.330000
0.666041 0.099846 0.330000
0.755094 0.169012 0.330000
0.794485 0.271639 0.330000
0.823906 0.354050 0.330000
0.836608 0.441165 0.330000
0.844334 0.513757 0.330000
0.851066 0.577261 0.330000
0.870647 0.626407 0.330000
0.900154 0.666041 0.330000
0.945800 0.692656 0.330000
1.000000 0.706344 0.330000
0.000000 0.037479 0.330000
0.420491 0.057406 0.330000
0.626407 0.129353 0.330000
0.712773 0.219187 0.330000
0.737376 0.331642 0.330000
0.756198 0.424143 0.330000
0.748693 0.513970 0.330000
0.746879 0.589358 0.330000
0.748903 0.657935 0.330000
0.780813 0.712773 0.330000
0.830988 0.755094 0.330000
0.908838 0.777085 0.330000
1.000000 0.790322 0.330000
0.000000 0.050964 0.330000
0.382011 0.075066 0.330000
0.577261 0.148934 0.330000
0.657935 0.251097 0.330000
0.675366 0.363962 0.330000
0.677663 0.460325 0.330000
0.653480 0.543187 0.330000
0.644028 0.613765 0.330000
0.636038 0.675366 0.330000
0.668358 0.737376 0.330000
0.728361 0.794485 0.330000