# vtk DataFile Version 2.0
Mesh for Fierro
ASCII 
DATASET UNSTRUCTURED_GRID

POINTS 845 float
0.000000 0.000000 0.000000
0.508148 0.000000 0.000000
0.903874 0.000000 0.000000
0.959237 0.000000 0.000000
0.968938 0.000000 0.000000
0.977116 0.000000 0.000000
0.983414 0.000000 0.000000
0.986529 0.000000 0.000000
0.986556 0.000000 0.000000
0.986248 0.000000 0.000000
0.985776 0.000000 0.000000
0.993624 0.000000 0.000000
1.000000 0.000000 0.000000
0.000000 0.006376 0.000000
0.602456 0.016898 0.000000
0.917429 0.112801 0.000000
0.885492 0.346019 0.000000
0.897213 0.426518 0.000000
0.894505 0.544521 0.000000
0.895919 0.641742 0.000000
0.901022 0.715383 0.000000
0.912255 0.748295 0.000000
0.930973 0.747928 0.000000
0.954966 0.716549 0.000000
0.983102 0.602456 0.000000
1.000000 0.508148 0.000000
0.000000 0.014224 0.000000
0.716549 0.045034 0.000000
0.871307 0.228785 0.000000
0.847258 0.490391 0.000000
0.831050 0.633705 0.000000
0.825905 0.722726 0.000000
0.799293 0.764484 0.000000
0.765347 0.772513 0.000000
0.748174 0.790146 0.000000
0.748294 0.824201 0.000000
0.771215 0.871307 0.000000
0.887199 0.917429 0.000000
1.000000 0.903874 0.000000
0.000000 0.013752 0.000000
0.747928 0.069027 0.000000
0.824201 0.251707 0.000000
0.821798 0.504346 0.000000
0.730561 0.624955 0.000000
0.700894 0.675915 0.000000
0.605618 0.707218 0.000000
0.522216 0.752292 0.000000
0.502213 0.791147 0.000000
0.495654 0.821798 0.000000
0.509609 0.847258 0.000000
0.653981 0.885492 0.000000
1.000000 0.959237 0.000000
0.000000 0.013444 0.000000
0.748295 0.087746 0.000000
0.790146 0.251826 0.000000
0.791147 0.497787 0.000000
0.671528 0.598529 0.000000
0.580862 0.647696 0.000000
0.495952 0.656124 0.000000
0.448675 0.659568 0.000000
0.401471 0.671528 0.000000
0.375045 0.730561 0.000000
0.366295 0.831050 0.000000
0.573483 0.897213 0.000000
1.000000 0.968938 0.000000
0.000000 0.013471 0.000000
0.715383 0.098978 0.000000
0.772513 0.234653 0.000000
0.752292 0.477784 0.000000
0.659568 0.551325 0.000000
0.567461 0.584366 0.000000
0.497235 0.575416 0.000000
0.415634 0.567461 0.000000
0.352304 0.580862 0.000000
0.324085 0.700894 0.000000
0.277274 0.825905 0.000000
0.455480 0.894505 0.000000
1.000000 0.977116 0.000000
0.000000 0.016586 0.000000
0.641742 0.104081 0.000000
0.764484 0.200707 0.000000
0.707218 0.394381 0.000000
0.656124 0.504048 0.000000
0.575416 0.502765 0.000000
0.500000 0.500000 0.000000
0.424584 0.497235 0.000000
0.343876 0.495952 0.000000
0.292782 0.605619 0.000000
0.235516 0.799292 0.000000
0.358259 0.895920 0.000000
1.000000 0.983414 0.000000
0.000000 0.022884 0.000000
0.544521 0.105495 0.000000
0.722726 0.174095 0.000000
0.675915 0.299106 0.000000
0.647696 0.419138 0.000000
0.584366 0.432539 0.000000
0.502765 0.424584 0.000000
0.432539 0.415634 0.000000
0.340431 0.448675 0.000000
0.247708 0.522215 0.000000
0.227487 0.765347 0.000000
0.284618 0.901022 0.000000
1.000000 0.986529 0.000000
0.000000 0.031062 0.000000
0.426518 0.102787 0.000000
0.633705 0.168950 0.000000
0.624955 0.269439 0.000000
0.598529 0.328473 0.000000
0.551325 0.340432 0.000000
0.504048 0.343876 0.000000
0.419138 0.352304 0.000000
0.328472 0.401471 0.000000
0.208853 0.502213 0.000000
0.209854 0.748173 0.000000
0.251705 0.912255 0.000000
1.000000 0.986556 0.000000
0.000000 0.040763 0.000000
0.346019 0.114509 0.000000
0.490391 0.152742 0.000000
0.504346 0.178202 0.000000
0.497787 0.208853 0.000000
0.477785 0.247708 0.000000
0.394381 0.292782 0.000000
0.299106 0.324085 0.000000
0.269439 0.375045 0.000000
0.178202 0.495654 0.000000
0.175799 0.748293 0.000000
0.252072 0.930973 0.000000
1.000000 0.986248 0.000000
0.000000 0.096126 0.000000
0.112801 0.082572 0.000000
0.228785 0.128693 0.000000
0.251707 0.175799 0.000000
0.251827 0.209854 0.000000
0.234653 0.227487 0.000000
0.200708 0.235516 0.000000
0.174095 0.277274 0.000000
0.168950 0.366295 0.000000
0.152742 0.509609 0.000000
0.128693 0.771215 0.000000
0.283451 0.954966 0.000000
1.000000 0.985776 0.000000
0.000000 0.491853 0.000000
0.016898 0.397544 0.000000
0.045034 0.283451 0.000000
0.069027 0.252072 0.000000
0.087745 0.251706 0.000000
0.098978 0.284618 0.000000
0.104080 0.358260 0.000000
0.105495 0.455480 0.000000
0.102787 0.573483 0.000000
0.114508 0.653981 0.000000
0.082571 0.887199 0.000000
0.397544 0.983102 0.000000
1.000000 0.993624 0.000000
0.000000 1.000000 0.000000
0.006376 1.000000 0.000000
0.014224 1.000000 0.000000
0.013752 1.000000 0.000000
0.013444 1.000000 0.000000
0.013471 1.000000 0.000000
0.016586 1.000000 0.000000
0.022884 1.000000 0.000000
0.031062 1.000000 0.000000
0.040763 1.000000 0.000000
0.096126 1.000000 0.000000
0.491853 1.000000 0.000000
1.000000 1.000000 0.000000
0.000000 0.000000 0.082500
0.508148 0.000000 0.082500
0.903874 0.000000 0.082500
0.959237 0.000000 0.082500
0.968938 0.000000 0.082500
0.977116 0.000000 0.082500
0.983414 0.000000 0.082500
0.986529 0.000000 0.082500
0.986556 0.000000 0.082500
0.986248 0.000000 0.082500
0.985776 0.000000 0.082500
0.993624 0.000000 0.082500
1.000000 0.000000 0.082500
0.000000 0.006376 0.082500
0.602456 0.016898 0.082500
0.917429 0.112801 0.082500
0.885492 0.346019 0.082500
0.897213 0.426518 0.082500
0.894505 0.544521 0.082500
0.895919 0.641742 0.082500
0.901022 0.715383 0.082500
0.912255 0.748295 0.082500
0.930973 0.747928 0.082500
0.954966 0.716549 0.082500
0.983102 0.602456 0.082500
1.000000 0.508148 0.082500
0.000000 0.014224 0.082500
0.716549 0.045034 0.082500
0.871307 0.228785 0.082500
0.847258 0.490391 0.082500
0.831050 0.633705 0.082500
0.825905 0.722726 0.082500
0.799293 0.764484 0.082500
0.765347 0.772513 0.082500
0.748174 0.790146 0.082500
0.748294 0.824201 0.082500
0.771215 0.871307 0.082500
0.887199 0.917429 0.082500
1.000000 0.903874 0.082500
0.000000 0.013752 0.082500
0.747928 0.069027 0.082500
0.824201 0.251707 0.082500
0.821798 0.504346 0.082500
0.730561 0.624955 0.082500
0.700894 0.675915 0.082500
0.605618 0.707218 0.082500
0.522216 0.752292 0.082500
0.502213 0.791147 0.082500
0.495654 0.821798 0.082500
0.509609 0.847258 0.082500
0.653981 0.885492 0.082500
1.000000 0.959237 0.082500
0.000000 0.013444 0.082500
0.748295 0.087746 0.082500
0.790146 0.251826 0.082500
0.791147 0.497787 0.082500
0.671528 0.598529 0.082500
0.580862 0.647696 0.082500
0.495952 0.656124 0.082500
0.448675 0.659568 0.082500
0.401471 0.671528 0.082500
0.375045 0.730561 0.082500
0.366295 0.831050 0.082500
0.573483 0.897213 0.082500
1.000000 0.968938 0.082500
0.000000 0.013471 0.082500
0.715383 0.098978 0.082500
0.772513 0.234653 0.082500
0.752292 0.477784 0.082500
0.659568 0.551325 0.082500
0.567461 0.584366 0.082500
0.497235 0.575416 0.082500
0.415634 0.567461 0.082500
0.352304 0.580862 0.082500
0.324085 0.700894 0.082500
0.277274 0.825905 0.082500
0.455480 0.894505 0.082500
1.000000 0.977116 0.082500
0.000000 0.016586 0.082500
0.641742 0.104081 0.082500
0.764484 0.200707 0.082500
0.707218 0.394381 0.082500
0.656124 0.504048 0.082500
0.575416 0.502765 0.082500
0.500000 0.500000 0.082500
0.424584 0.497235 0.082500
0.343876 0.495952 0.082500
0.292782 0.605619 0.082500
0.235516 0.799292 0.082500
0.358259 0.895920 0.082500
1.000000 0.983414 0.082500
0.000000 0.022884 0.082500
0.544521 0.105495 0.082500
0.722726 0.174095 0.082500
0.675915 0.299106 0.082500
0.647696 0.419138 0.082500
0.584366 0.432539 0.082500
0.502765 0.424584 0.082500
0.432539 0.415634 0.082500
0.340431 0.448675 0.082500
0.247708 0.522215 0.082500
0.227487 0.765347 0.082500
0.284618 0.901022 0.082500
1.000000 0.986529 0.082500
0.000000 0.031062 0.082500
0.426518 0.102787 0.082500
0.633705 0.168950 0.082500
0.624955 0.269439 0.082500
0.598529 0.328473 0.082500
0.551325 0.340432 0.082500
0.504048 0.343876 0.082500
0.419138 0.352304 0.082500
0.328472 0.401471 0.082500
0.208853 0.502213 0.082500
0.209854 0.748173 0.082500
0.251705 0.912255 0.082500
1.000000 0.986556 0.082500
0.000000 0.040763 0.082500
0.346019 0.114509 0.082500
0.490391 0.152742 0.082500
0.504346 0.178202 0.082500
0.497787 0.208853 0.082500
0.477785 0.247708 0.082500
0.394381 0.292782 0.082500
0.299106 0.324085 0.082500
0.269439 0.375045 0.082500
0.178202 0.495654 0.082500
0.175799 0.748293 0.082500
0.252072 0.930973 0.082500
1.000000 0.986248 0.082500
0.000000 0.096126 0.082500
0.112801 0.082572 0.082500
0.228785 0.128693 0.082500
0.251707 0.175799 0.082500
0.251827 0.209854 0.082500
0.234653 0.227487 0.082500
0.200708 0.235516 0.082500
0.174095 0.277274 0.082500
0.168950 0.366295 0.082500
0.152742 0.509609 0.082500
0.128693 0.771215 0.082500
0.283451 0.954966 0.082500
1.000000 0.985776 0.082500
0.000000 0.491853 0.082500
0.016898 0.397544 0.082500
0.045034 0.283451 0.082500
0.069027 0.252072 0.082500
0.087745 0.251706 0.082500
0.098978 0.284618 0.082500
0.104080 0.358260 0.082500
0.105495 0.455480 0.082500
0.102787 0.573483 0.082500
0.114508 0.653981 0.082500
0.082571 0.887199 0.082500
0.397544 0.983102 0.082500
1.000000 0.993624 0.082500
0.000000 1.000000 0.082500
0.006376 1.000000 0.082500
0.014224 1.000000 0.082500
0.013752 1.000000 0.082500
0.013444 1.000000 0.082500
0.013471 1.000000 0.082500
0.016586 1.000000 0.082500
0.022884 1.000000 0.082500
0.031062 1.000000 0.082500
0.040763 1.000000 0.082500
0.096126 1.000000 0.082500
0.491853 1.000000 0.082500
1.000000 1.000000 0.082500
0.000000 0.000000 0.165000
0.508148 0.000000 0.165000
0.903874 0.000000 0.165000
0.959237 0.000000 0.165000
0.968938 0.000000 0.165000
0.977116 0.000000 0.165000
0.983414 0.000000 0.165000
0.986529 0.000000 0.165000
0.986556 0.000000 0.165000
0.986248 0.000000 0.165000
0.985776 0.000000 0.165000
0.993624 0.000000 0.165000
1.000000 0.000000 0.165000
0.000000 0.006376 0.165000
0.602456 0.016898 0.165000
0.917429 0.112801 0.165000
0.885492 0.346019 0.165000
0.897213 0.426518 0.165000
0.894505 0.544521 0.165000
0.895919 0.641742 0.165000
0.901022 0.715383 0.165000
0.912255 0.748295 0.165000
0.930973 0.747928 0.165000
0.954966 0.716549 0.165000
0.983102 0.602456 0.165000
1.000000 0.508148 0.165000
0.000000 0.014224 0.165000
0.716549 0.045034 0.165000
[...]
POINT_DATA 845 
VECTORS pos float 
0.000000 0.000000 0.000000
0.508148 0.000000 0.000000
0.903874 0.000000 0.000000
0.959237 0.000000 0.000000
0.968938 0.000000 0.000000
0.977116 0.000000 0.000000
0.983414 0.000000 0.000000
0.986529 0.000000 0.000000
0.986556 0.000000 0.000000
0.986248 0.000000 0.000000
0.985776 0.000000 0.000000
0.993624 0.000000 0.000000
1.000000 0.000000 0.000000
0.000000 0.006376 0.000000
0.602456 0.016898 0.000000
0.917429 0.112801 0.000000
0.885492 0.346019 0.000000
0.897213 0.426518 0.000000
0.894505 0.544521 0.000000
0.895919 0.641742 0.000000
0.901022 0.715383 0.000000
0.912255 0.748295 0.000000
0.930973 0.747928 0.000000
0.954966 0.716549 0.000000
0.983102 0.602456 0.000000
1.000000 0.508148 0.000000
0.000000 0.014224 0.000000
0.716549 0.045034 0.000000
0.871307 0.228785 0.000000
0.847258 0.490391 0.000000
0.831050 0.633705 0.000000
0.825905 0.722726 0.000000
0.799293 0.764484 0.000000
0.765347 0.772513 0.000000
0.748174 0.790146 0.000000
0.748294 0.824201 0.000000
0.771215 0.871307 0.000000
0.887199 0.917429 0.000000
1.000000 0.903874 0.000000
0.000000 0.013752 0.000000
0.747928 0.069027 0.000000
0.824201 0.251707 0.000000
0.821798 0.504346 0.000000
0.730561 0.624955 0.000000
0.700894 0.675915 0.000000
0.605618 0.707218 0.000000
0.522216 0.752292 0.000000
0.502213 0.791147 0.000000
0.495654 0.821798 0.000000
0.509609 0.847258 0.000000
0.653981 0.885492 0.000000
1.000000 0.959237 0.000000
0.000000 0.013444 0.000000
0.748295 0.087746 0.000000
0.790146 0.251826 0.000000
0.791147 0.497787 0.000000
0.671528 0.598529 0.000000
0.580862 0.647696 0.000000
0.495952 0.656124 0.000000
0.448675 0.659568 0.000000
0.401471 0.671528 0.000000
0.375045 0.730561 0.000000
0.366295 0.831050 0.000000
0.573483 0.897213 0.000000
1.000000 0.968938 0.000000
0.000000 0.013471 0.000000
0.715383 0.098978 0.000000
0.772513 0.234653 0.000000
0.752292 0.477784 0.000000
0.659568 0.551325 0.000000
0.567461 0.584366 0.000000
0.497235 0.575416 0.000000
0.415634 0.567461 0.000000
0.352304 0.580862 0.000000
0.324085 0.700894 0.000000
0.277274 0.825905 0.000000
0.455480 0.894505 0.000000
1.000000 0.977116 0.000000
0.000000 0.016586 0.000000
0.641742 0.104081 0.000000
0.764484 0.200707 0.000000
0.707218 0.394381 0.000000
0.656124 0.504048 0.000000
0.575416 0.502765 0.000000
0.500000 0.500000 0.000000
0.424584 0.497235 0.000000
0.343876 0.495952 0.000000
0.292782 0.605619 0.000000
0.235516 0.799292 0.000000
0.358259 0.895920 0.000000
1.000000 0.983414 0.000000
0.000000 0.022884 0.000000
0.544521 0.105495 0.000000
0.722726 0.174095 0.000000
0.675915 0.299106 0.000000
0.647696 0.419138 0.000000
0.584366 0.432539 0.000000
0.502765 0.424584 0.000000
0.432539 0.415634 0.000000
0.340431 0.448675 0.000000
0.247708 0.522215 0.000000
0.227487 0.765347 0.000000
0.284618 0.901022 0.000000
1.000000 0.986529 0.000000
0.000000 0.031062 0.000000
0.426518 0.102787 0.000000
0.633705 0.168950 0.000000
0.624955 0.269439 0.000000
0.598529 0.328473 0.000000
0.551325 0.340432 0.000000
0.504048 0.343876 0.000000
0.419138 0.352304 0.000000
0.328472 0.401471 0.000000
0.208853 0.502213 0.000000
0.209854 0.748173 0.000000
0.251705 0.912255 0.000000
1.000000 0.986556 0.000000
0.000000 0.040763 0.000000
0.346019 0.114509 0.000000
0.490391 0.152742 0.000000
0.504346 0.178202 0.000000
0.497787 0.208853 0.000000
0.477785 0.247708 0.000000
0.394381 0.292782 0.000000
0.299106 0.324085 0.000000
0.269439 0.375045 0.000000
0.178202 0.495654 0.000000
0.175799 0.748293 0.000000
0.252072 0.930973 0.000000
1.000000 0.986248 0.000000
0.000000 0.096126 0.000000
0.112801 0.082572 0.000000
0.228785 0.128693 0.000000
0.251707 0.175799 0.000000
0.251827 0.209854 0.000000
0.234653 0.227487 0.000000
0.200708 0.235516 0.000000
0.174095 0.277274 0.000000
0.168950 0.366295 0.000000
0.152742 0.509609 0.000000
0.128693 0.771215 0.000000
0.283451 0.954966 0.000000
1.000000 0.985776 0.000000
0.000000 0.491853 0.000000
0.016898 0.397544 0.000000
0.045034 0.283451 0.000000
0.069027 0.252072 0.000000
0.087745 0.251706 0.000000
0.098978 0.284618 0.000000
0.104080 0.358260 0.000000
0.105495 0.455480 0.000000
0.102787 0.573483 0.000000
0.114508 0.653981 0.000000
0.082571 0.887199 0.000000
0.397544 0.983102 0.000000
1.000000 0.993624 0.000000
0.000000 1.000000 0.000000
0.006376 1.000000 0.000000
0.014224 1.000000 0.000000
0.013752 1.000000 0.000000
0.013444 1.000000 0.000000
0.013471 1.000000 0.000000
0.016586 1.000000 0.000000
0.022884 1.000000 0.000000
0.031062 1.000000 0.000000
0.040763 1.000000 0.000000
0.096126 1.000000 0.000000
0.491853 1.000000 0.000000
1.000000 1.000000 0.000000
0.000000 0.000000 0.082500
0.508148 0.000000 0.082500
0.903874 0.000000 0.082500
0.959237 0.000000 0.082500
0.968938 0.000000 0.082500
0.977116 0.000000 0.082500
0.983414 0.000000 0.082500
0.986529 0.000000 0.082500
0.986556 0.000000 0.082500
0.986248 0.000000 0.082500
0.985776 0.000000 0.082500
0.993624 0.000000 0.082500
1.000000 0.000000 0.082500
0.000000 0.006376 0.082500
0.602456 0.016898 0.082500
0.917429 0.112801 0.082500
0.885492 0.346019 0.082500
0.897213 0.426518 0.082500
0.894505 0.544521 0.082500
0.895919 0.641742 0.082500
0.901022 0.715383 0.082500
0.912255 0.748295 0.082500
0.930973 0.747928 0.082500
0.954966 0.716549 0.082500
0.983102 0.602456 0.082500
1.000000 0.508148 0.082500
0.000000 0.014224 0.082500
0.716549 0.045034 0.082500
0.871307 0.228785 0.082500
0.847258 0.490391 0.082500
0.831050 0.633705 0.082500
0.825905 0.722726 0.082500
0.799293 0.764484 0.082500
0.765347 0.772513 0.082500
0.748174 0.790146 0.082500
0.748294 0.824201 0.082500
0.771215 0.871307 0.082500
0.887199 0.917429 0.082500
1.000000 0.903874 0.082500
0.000000 0.013752 0.082500
0.747928 0.069027 0.082500
0.824201 0.251707 0.082500
0.821798 0.504346 0.082500
0.730561 0.624955 0.082500
0.700894 0.675915 0.082500
0.605618 0.707218 0.082500
0.522216 0.752292 0.082500
0.502213 0.791147 0.082500
0.495654 0.821798 0.082500
0.509609 0.847258 0.082500
0.653981 0.885492 0.082500
1.000000 0.959237 0.082500
0.000000 0.013444 0.082500
0.748295 0.087746 0.082500
0.790146 0.251826 0.082500
0.791147 0.497787 0.082500
0.671528 0.598529 0.082500
0.580862 0.647696 0.082500
0.495952 0.656124 0.082500
0.448675 0.659568 0.082500
0.401471 0.671528 0.082500
0.375045 0.730561 0.082500
0.366295 0.831050 0.082500
0.573483 0.897213 0.082500
1.000000 0.968938 0.082500
0.000000 0.013471 0.082500
0.715383 0.098978 0.082500
0.772513 0.234653 0.082500
0.752292 0.477784 0.082500
0.659568 0.551325 0.082500
0.567461 0.584366 0.082500
0.497235 0.575416 0.082500
0.415634 0.567461 0.082500
0.352304 0.580862 0.082500
0.324085 0.700894 0.082500
0.277274 0.825905 0.082500
0.455480 0.894505 0.082500
1.000000 0.977116 0.082500
0.000000 0.016586 0.082500
0.641742 0.104081 0.082500
0.764484 0.200707 0.082500
0.707218 0.394381 0.082500
0.656124 0.504048 0.082500
0.575416 0.502765 0.082500
0.500000 0.500000 0.082500
0.424584 0.497235 0.082500
0.343876 0.495952 0.082500
0.292782 0.605619 0.082500
0.235516 0.799292 0.082500
0.358259 0.895920 0.082500
1.000000 0.983414 0.082500
0.000000 0.022884 0.082500
0.544521 0.105495 0.082500
0.722726 0.174095 0.082500
0.675915 0.299106 0.082500
0.647696 0.419138 0.082500
0.584366 0.432539 0.082500
0.502765 0.424584 0.082500
0.432539 0.415634 0.082500
0.340431 0.448675 0.082500
0.247708 0.522215 0.082500
0.227487 0.765347 0.082500
0.284618 0.901022 0.082500
1.000000 0.986529 0.082500
0.000000 0.031062 0.082500
0.426518 0.102787 0.082500
0.633705 0.168950 0.082500
0.624955 0.269439 0.082500
0.598529 0.328473 0.082500
0.551325 0.340432 0.082500
0.504048 0.343876 0.082500
0.419138 0.352304 0.082500
0.328472 0.401471 0.082500
0.208853 0.502213 0.082500
0.209854 0.748173 0.082500
0.251705 0.912255 0.082500
1.000000 0.986556 0.082500
0.000000 0.040763 0.082500
0.346019 0.114509 0.082500
0.490391 0.152742 0.082500
0.504346 0.178202 0.082500
0.497787 0.208853 0.082500
0.477785 0.247708 0.082500
0.394381 0.292782 0.082500
0.299106 0.324085 0.082500
0.269439 0.375045 0.082500
0.178202 0.495654 0.082500
0.175799 0.748293 0.082500
0.252072 0.930973 0.082500
1.000000 0.986248 0.082500
0.000000 0.096126 0.082500
0.112801 0.082572 0.082500
0.228785 0.128693 0.082500
0.251707 0.175799 0.082500
0.251827 0.209854 0.082500
0.234653 0.227487 0.082500
0.200708 0.235516 0.082500
0.174095 0.277274 0.082500
0.168950 0.366295 0.082500
0.152742 0.509609 0.082500
0.128693 0.771215 0.082500
0.283451 0.954966 0.082500
1.000000 0.985776 0.082500
0.000000 0.491853 0.082500
0.016898 0.397544 0.082500
0.045034 0.283451 0.082500
0.069027 0.252072 0.082500
0.087745 0.251706 0.082500
0.098978 0.284618 0.082500
0.104080 0.358260 0.082500
0.105495 0.455480 0.082500
0.102787 0.573483 0.082500
0.114508 0.653981 0.082500
0.082571 0.887199 0.082500
0.397544 0.983102 0.082500
1.000000 0.993624 0.082500
0.000000 1.000000 0.082500
0.006376 1.000000 0.082500
0.014224 1.000000 0.082500
0.013752 1.000000 0.082500
0.013444 1.000000 0.082500
0.013471 1.000000 0.082500
0.016586 1.000000 0.082500
0.022884 1.000000 0.082500
0.031062 1.000000 0.082500
0.040763 1.000000 0.082500
0.096126 1.000000 0.082500
0.491853 1.000000 0.082500
1.000000 1.000000 0.082500
0.000000 0.000000 0.165000
0.508148 0.000000 0.165000
0.903874 0.000000 0.165000
0.959237 0.000000 0.165000
0.968938 0.000000 0.165000
0.977116 0.000000 0.165000
0.983414 0.000000 0.165000
0.986529 0.000000 0.165000
0.986556 0.000000 0.165000
0.986248 0.000000 0.165000
0.985776 0.000000 0.165000
0.993624 0.000000 0.165000
1.000000 0.000000 0.165000
0.000000 0.006376 0.165000
0.602456 0.016898 0.165000
0.917429 0.112801 0.165000
0.885492 0.346019 0.165000
0.897213 0.426518 0.165000
0.894505 0.544521 0.165000
0.895919 0.641742 0.165000
0.901022 0.715383 0.165000
0.912255 0.748295 0.165000
0.930973 0.747928 0.165000
0.954966 0.716549 0.165000
0.983102 0.602456 0.165000
1.000000 0.508148 0.165000
0.000000 0.014224 0.165000
0.716549 0.045034 0.165000
0.871307 0.228785 0.165000
0.847258 0.490391 0.165000
0.831050 0.633705 0.165000
0.825905 0.722726 0.165000
0.799293 0.764484 0.165000
0.765347 0.772513 0.165000
0.748174 0.790146 0.165000
0.748294 0.824201 0.165000
0.771215 0.871307 0.165000
0.887199 0.917429 0.165000
1.000000 0.903874 0.165000
0.000000 0.013752 0.165000
0.747928 0.069027 0.165000
0.824201 0.251707 0.165000
0.821798 0.504346 0.165000
0.730561 0.624955 0.165000
0.700894 0.675915 0.165000
0.605618 0.707218 0.165000
0.522216 0.752292 0.165000
0.502213 0.791147 0.165000
0.495654 0.821798 0.165000
0.509609 0.847258 0.165000
0.653981 0.885492 0.165000
1.000000 0.959237 0.165000
0.000000 0.013444 0.165000
0.748295 0.087746 0.165000
0.790146 0.251826 0.165000
0.791147 0.497787 0.165000
0.671528 0.598529 0.165000
0.580862 0.647696 0.165000
0.495952 0.656124 0.165000
0.448675 0.659568 0.165000
0.401471 0.671528 0.165000
0.375045 0.730561 0.165000
0.366295 0.831050 0.165000
0.573483 0.897213 0.165000
1.000000 0.968938 0.165000
0.000000 0.013471 0.165000
0.715383 0.098978 0.165000
0.772513 0.234653 0.165000
0.752292 0.477784 0.165000
0.659568 0.551325 0.165000
0.567461 0.584366 0.165000
0.497235 0.575416 0.165000
0.415634 0.567461 0.165000
0.352304 0.580862 0.165000
0.324085 0.700894 0.165000
0.277274 0.825905 0.165000
0.455480 0.894505 0.165000
1.000000 0.977116 0.165000
0.000000 0.016586 0.165000
0.641742 0.104081 0.165000
0.764484 0.200707 0.165000
0.707218 0.394381 0.165000
0.656124 0.504048 0.165000
0.575416 0.502765 0.165000
0.500000 0.500000 0.165000
0.424584 0.497235 0.165000
0.343876 0.495952 0.165000
0.292782 0.605619 0.165000
0.235516 0.799292 0.165000
0.358259 0.895920 0.165000
1.000000 0.983414 0.165000
0.000000 0.022884 0.165000
0.544521 0.105495 0.165000
0.722726 0.174095 0.165000
0.675915 0.299106 0.165000
0.647696 0.419138 0.165000
0.584366 0.432539 0.165000
0.502765 0.424584 0.165000
0.432539 0.415634 0.165000
0.340431 0.448675 0.165000
0.247708 0.522215 0.165000
0.227487 0.765347 0.165000
0.284618 0.901022 0.165000
1.000000 0.986529 0.165000
0.000000 0.031062 0.165000
0.426518 0.102787 0.165000
0.633705 0.168950 0.165000
0.624955 0.269439 0.165000
0.598529 0.328473 0.165000
0.551325 0.340432 0.165000
0.504048 0.343876 0.165000
0.419138 0.352304 0.165000
0.328472 0.401471 0.165000
0.208853 0.502213 0.165000
0.209854 0.748173 0.165000
0.251705 0.912255 0.165000
1.000000 0.986556 0.165000
0.000000 0.040763 0.165000
0.346019 0.114509 0.165000
0.490391 0.152742 0.165000
0.504346 0.178202 0.165000
0.497787 0.208853 0.165000
0.477785 0.247708 0.165000
0.394381 0.292782 0.165000
0.299106 0.324085 0.165000
0.269439 0.375045 0.165000
0.178202 0.495654 0.165000
0.175799 0.748293 0.165000
0.252072 0.930973 0.165000
1.000000 0.986248 0.165000
0.000000 0.096126 0.165000
0.112801 0.082572 0.165000
0.228785 0.128693 0.165000
0.251707 0.175799 0.165000
0.251827 0.209854 0.165000
0.234653 0.227487 0.165000
0.200708 0.235516 0.165000
0.174095 0.277274 0.165000
0.168950 0.366295 0.165000
0.152742 0.509609 0.165000
0.128693 0.771215 0.165000
0.283451 0.954966 0.165000
1.000000 0.985776 0.165000
0.000000 0.491853 0.165000
0.016898 0.397544 0.165000
0.045034 0.283451 0.165000
0.069027 0.252072 0.165000
0.087745 0.251706 0.165000
0.098978 0.284618 0.165000
0.104080 0.358260 0.165000
0.105495 0.455480 0.165000
0.102787 0.573483 0.165000
0.114508 0.653981 0.165000
0.082571 0.887199 0.165000
0.397544 0.983102 0.165000
1.000000 0.993624 0.165000
0.000000 1.000000 0.165000
0.006376 1.000000 0.165000
0.014224 1.000000 0.165000
0.013752 1.000000 0.165000
0.013444 1.000000 0.165000
0.013471 1.000000 0.165000
0.016586 1.000000 0.165000
0.022884 1.000000 0.165000
0.031062 1.000000 0.165000
0.040763 1.000000 0.165000
0.096126 1.000000 0.165000
0.491853 1.000000 0.165000
1.000000 1.000000 0.165000
0.000000 0.000000 0.247500
0.508148 0.000000 0.247500
0.903874 0.000000 0.247500
0.959237 0.000000 0.247500
0.968938 0.000000 0.247500
0.977116 0.000000 0.247500
0.983414 0.000000 0.247500
0.986529 0.000000 0.247500
0.986556 0.000000 0.247500
0.986248 0.000000 0.247500
0.985776 0.000000 0.247500
0.993624 0.000000 0.247500
1.000000 0.000000 0.247500
0.000000 0.006376 0.247500
0.602456 0.016898 0.247500
0.917429 0.112801 0.247500
0.885492 0.346019 0.247500
0.897213 0.426518 0.247500
0.894505 0.544521 0.247500
0.895919 0.641742 0.247500
0.901022 0.715383 0.247500
0.912255 0.748295 0.247500
0.930973 0.747928 0.247500
0.954966 0.716549 0.247500
0.983102 0.602456 0.247500
1.000000 0.508148 0.247500
0.000000 0.014224 0.247500
0.716549 0.045034 0.247500
0.871307 0.228785 0.247500
0.847258 0.490391 0.247500
0.831050 0.633705 0.247500
0.825905 0.722726 0.247500
0.799293 0.764484 0.247500
0.765347 0.772513 0.247500
0.748174 0.790146 0.247500
0.748294 0.824201 0.247500
0.771215 0.871307 0.247500
0.887199 0.917429 0.247500
1.000000 0.903874 0.247500
0.000000 0.013752 0.247500
0.747928 0.069027 0.247500
0.824201 0.251707 0.247500
0.821798 0.504346 0.247500
0.730561 0.624955 0.247500
0.700894 0.675915 0.247500
0.605618 0.707218 0.247500
0.522216 0.752292 0.247500
0.502213 0.791147 0.247500
0.495654 0.821798 0.247500
0.509609 0.847258 0.247500
0.653981 0.885492 0.247500
1.000000 0.959237 0.247500
0.000000 0.013444 0.247500
0.748295 0.087746 0.247500
0.790146 0.251826 0.247500
0.791147 0.497787 0.247500
0.671528 0.598529 0.247500
0.580862 0.647696 0.247500
0.495952 0.656124 0.247500
0.448675 0.659568 0.247500
0.401471 0.671528 0.247500
0.375045 0.730561 0.247500
0.366295 0.831050 0.247500
0.573483 0.897213 0.247500
1.000000 0.968938 0.247500
0.000000 0.013471 0.247500
0.715383 0.098978 0.247500
0.772513 0.234653 0.247500
0.752292 0.477784 0.247500
0.659568 0.551325 0.247500
0.567461 0.584366 0.247500
0.497235 0.575416 0.247500
0.415634 0.567461 0.247500
0.352304 0.580862 0.247500
0.324085 0.700894 0.247500
0.277274 0.825905 0.247500
0.455480 0.894505 0.247500
1.000000 0.977116 0.247500
0.000000 0.016586 0.247500
0.641742 0.104081 0.247500
0.764484 0.200707 0.247500
0.707218 0.394381 0.247500
0.656124 0.504048 0.247500
0.575416 0.502765 0.247500
0.500000 0.500000 0.247500
0.424584 0.497235 0.247500
0.343876 0.495952 0.247500
0.292782 0.605619 0.247500
0.235516 0.799292 0.247500
0.358259 0.895920 0.247500
1.000000 0.983414 0.247500
0.000000 0.022884 0.247500
0.544521 0.105495 0.247500
0.722726 0.174095 0.247500
0.675915 0.299106 0.247500
0.647696 0.419138 0.247500
0.584366 0.432539 0.247500
0.502765 0.424584 0.247500
0.432539 0.415634 0.247500
0.340431 0.448675 0.247500
0.247708 0.522215 0.247500
0.227487 0.765347 0.247500
0.284618 0.901022 0.247500
1.000000 0.986529 0.247500
0.000000 0.031062 0.247500
0.426518 0.102787 0.247500
0.633705 0.168950 0.247500
0.624955 0.269439 0.247500
0.598529 0.328473 0.247500
0.551325 0.340432 0.247500
0.504048 0.343876 0.247500
0.419138 0.352304 0.247500
0.328472 0.401471 0.247500
0.208853 0.502213 0.247500
0.209854 0.748173 0.247500
0.251705 0.912255 0.247500
1.000000 0.986556 0.247500
0.000000 0.040763 0.247500
0.346019 0.114509 0.247500
0.490391 0.152742 0.247500
0.504346 0.178202 0.247500
0.497787 0.208853 0.247500
0.477785 0.247708 0.247500
0.394381 0.292782 0.247500
0.299106 0.324085 0.247500
0.269439 0.375045 0.247500
0.178202 0.495654 0.247500
0.175799 0.748293 0.247500
0.252072 0.930973 0.247500
1.000000 0.986248 0.247500
0.000000 0.096126 0.247500
0.112801 0.082572 0.247500
0.228785 0.128693 0.247500
0.251707 0.175799 0.247500
0.251827 0.209854 0.247500
0.234653 0.227487 0.247500
0.200708 0.235516 0.247500
0.174095 0.277274 0.247500
0.168950 0.366295 0.247500
0.152742 0.509609 0.247500
0.128693 0.771215 0.247500
0.283451 0.954966 0.247500
1.000000 0.985776 0.247500
0.000000 0.491853 0.247500
0.016898 0.397544 0.247500
0.045034 0.283451 0.247500
0.069027 0.252072 0.247500
0.087745 0.251706 0.247500
0.098978 0.284618 0.247500
0.104080 0.358260 0.247500
0.105495 0.455480 0.247500
0.102787 0.573483 0.247500
0.114508 0.653981 0.247500
0.082571 0.887199 0.247500
0.397544 0.983102 0.247500
1.000000 0.993624 0.247500
0.000000 1.000000 0.247500
0.006376 1.000000 0.247500
0.014224 1.000000 0.247500
0.013752 1.000000 0.247500
0.013444 1.000000 0.247500
0.013471 1.000000 0.247500
0.016586 1.000000 0.247500
0.022884 1.000000 0.247500
0.031062 1.000000 0.247500
0.040763 1.000000 0.247500
0.096126 1.000000 0.247500
0.491853 1.000000 0.247500
1.000000 1.000000 0.247500
0.000000 0.000000 0.330000
0.508148 0.000000 0.330000
0.903874 0.000000 0.330000
0.959237 0.000000 0.330000
0.968938 0.000000 0.330000
0.977116 0.000000 0.330000
0.983414 0.000000 0.330000
0.986529 0.000000 0.330000
0.986556 0.000000 0.330000
0.986248 0.000000 0.330000
0.985776 0.000000 0.330000
0.993624 0.000000 0.330000
1.000000 0.000000 0.330000
0.000000 0.006376 0.330000
0.602456 0.016898 0.330000
0.917429 0.112801 0.330000
0.885492 0.346019 0.330000
0.897213 0.426518 0.330000
0.894505 0.544521 0.330000
0.895919 0.641742 0.330000
0.901022 0.715383 0.330000
0.912255 0.748295 0.330000
0.930973 0.747928 0.330000
0.954966 0.716549 0.330000
0.983102 0.602456 0.330000
1.000000 0.508148 0.330000
0.000000 0.014224 0.330000
0.716549 0.045034 0.330000
0.871307 0.228785 0.330000
0.847258 0.490391 0.330000
0.831050 0.633705 0.330000
0.825905 0.722726 0.330000
0.799293 0.764484 0.330000
0.765347 0.772513 0.330000
0.748174 0.790146 0.330000
0.748294 0.824201 0.330000
0.771215 0.871307 0.330000
0.887199 0.917429 0.330000
1.000000 0.903874 0.330000
0.000000 0.013752 0.330000
0.747928 0.069027 0.330000
0.824201 0.251707 0.330000
0.821798 0.504346 0.330000
0.730561 0.624955 0.330000
0.700894 0.675915 0.330000
0.605618 0.707218 0.330000
0.522216 0.752292 0.330000
0.502213 0.791147 0.330000
0.495654 0.821798 0.330000
0.509609 0.847258 0.330000
0.653981 0.885492 0.330000
1.000000 0.959237 0.330000
0.000000 0.013444 0.330000
0.748295 0.087746 0.330000
0.790146 0.251826 0.330000
0.791147 0.497787 0.330000
0.671528 0.598529 0.330000
0.580862 0.647696 0.330000
0.495952 0.656124 0.330000
0.448675 0.659568 0.330000
0.401471 0.671528 0.330000
0.375045 0.730561 0.330000
0.366295 0.831050 0.330000