# vtk DataFile Version 2.0
Mesh for Fierro
ASCII 
DATASET UNSTRUCTURED_GRID

POINTS 845 float
0.000000 0.000000 0.000000
0.505210 0.000000 0.000000
0.900437 0.000000 0.000000
0.954998 0.000000 0.000000
0.965723 0.000000 0.000000
0.974418 0.000000 0.000000
0.981180 0.000000 0.000000
0.985102 0.000000 0.000000
0.986357 0.000000 0.000000
0.986050 0.000000 0.000000
0.985580 0.000000 0.000000
0.993354 0.000000 0.000000
1.000000 0.000000 0.000000
0.000000 0.006646 0.000000
0.605032 0.017259 0.000000
0.913395 0.111200 0.000000
0.884955 0.333720 0.000000
0.898599 0.411985 0.000000
0.896968 0.529153 0.000000
0.898728 0.626160 0.000000
0.904092 0.701164 0.000000
0.913707 0.742052 0.000000
0.931706 0.745937 0.000000
0.954803 0.716914 0.000000
0.982741 0.605032 0.000000
1.000000 0.505210 0.000000
0.000000 0.014420 0.000000
0.716914 0.045197 0.000000
0.864893 0.220158 0.000000
0.847962 0.468663 0.000000
0.834714 0.618023 0.000000
0.829195 0.709466 0.000000
0.804073 0.753500 0.000000
0.773491 0.764590 0.000000
0.760058 0.784525 0.000000
0.759021 0.817573 0.000000
0.779842 0.864893 0.000000
0.888800 0.913396 0.000000
1.000000 0.900437 0.000000
0.000000 0.013950 0.000000
0.745937 0.068294 0.000000
0.817573 0.240979 0.000000
0.822987 0.490325 0.000000
0.733681 0.616201 0.000000
0.707311 0.668485 0.000000
0.617335 0.702482 0.000000
0.534590 0.751130 0.000000
0.513163 0.791072 0.000000
0.509675 0.822987 0.000000
0.531338 0.847963 0.000000
0.666280 0.884955 0.000000
1.000000 0.954998 0.000000
0.000000 0.013643 0.000000
0.742052 0.086293 0.000000
0.784525 0.239942 0.000000
0.791072 0.486837 0.000000
0.677518 0.586002 0.000000
0.591427 0.643016 0.000000
0.506810 0.655879 0.000000
0.461022 0.663081 0.000000
0.413999 0.677518 0.000000
0.383799 0.733681 0.000000
0.381978 0.834714 0.000000
0.588016 0.898599 0.000000
1.000000 0.965723 0.000000
0.000000 0.014898 0.000000
0.701164 0.095908 0.000000
0.764590 0.226509 0.000000
0.751130 0.465410 0.000000
0.663081 0.538978 0.000000
0.573705 0.581164 0.000000
0.502346 0.575955 0.000000
0.418836 0.573705 0.000000
0.356984 0.591428 0.000000
0.331515 0.707311 0.000000
0.290534 0.829195 0.000000
0.470848 0.896968 0.000000
1.000000 0.974418 0.000000
0.000000 0.018820 0.000000
0.626160 0.101272 0.000000
0.753500 0.195927 0.000000
0.702482 0.382665 0.000000
0.655879 0.493190 0.000000
0.575955 0.497654 0.000000
0.500000 0.500000 0.000000
0.424045 0.502346 0.000000
0.344121 0.506810 0.000000
0.297518 0.617335 0.000000
0.246500 0.804073 0.000000
0.373841 0.898728 0.000000
1.000000 0.981180 0.000000
0.000000 0.025582 0.000000
0.529152 0.103032 0.000000
0.709466 0.170805 0.000000
0.668485 0.292689 0.000000
0.643016 0.408573 0.000000
0.581164 0.426295 0.000000
0.497654 0.424045 0.000000
0.426295 0.418836 0.000000
0.336919 0.461022 0.000000
0.248870 0.534590 0.000000
0.235410 0.773490 0.000000
0.298837 0.904092 0.000000
1.000000 0.985102 0.000000
0.000000 0.034277 0.000000
0.411985 0.101401 0.000000
0.618023 0.165286 0.000000
0.616202 0.266319 0.000000
0.586002 0.322482 0.000000
0.538978 0.336919 0.000000
0.493190 0.344121 0.000000
0.408572 0.356985 0.000000
0.322482 0.413998 0.000000
0.208928 0.513162 0.000000
0.215475 0.760058 0.000000
0.257949 0.913707 0.000000
1.000000 0.986358 0.000000
0.000000 0.045003 0.000000
0.333720 0.115045 0.000000
0.468663 0.152038 0.000000
0.490325 0.177013 0.000000
0.486838 0.208928 0.000000
0.465410 0.248870 0.000000
0.382665 0.297519 0.000000
0.292689 0.331515 0.000000
0.266319 0.383798 0.000000
0.177013 0.509675 0.000000
0.182427 0.759020 0.000000
0.254064 0.931706 0.000000
1.000000 0.986050 0.000000
0.000000 0.099563 0.000000
0.111200 0.086605 0.000000
0.220158 0.135107 0.000000
0.240980 0.182427 0.000000
0.239942 0.215475 0.000000
0.226510 0.235410 0.000000
0.195927 0.246500 0.000000
0.170805 0.290534 0.000000
0.165286 0.381978 0.000000
0.152038 0.531338 0.000000
0.135107 0.779842 0.000000
0.283086 0.954803 0.000000
1.000000 0.985580 0.000000
0.000000 0.494790 0.000000
0.017259 0.394968 0.000000
0.045197 0.283086 0.000000
0.068294 0.254064 0.000000
0.086293 0.257949 0.000000
0.095908 0.298837 0.000000
0.101272 0.373841 0.000000
0.103032 0.470849 0.000000
0.101401 0.588016 0.000000
0.115045 0.666280 0.000000
0.086605 0.888800 0.000000
0.394968 0.982741 0.000000
1.000000 0.993354 0.000000
0.000000 1.000000 0.000000
0.006646 1.000000 0.000000
0.014420 1.000000 0.000000
0.013950 1.000000 0.000000
0.013642 1.000000 0.000000
0.014898 1.000000 0.000000
0.018820 1.000000 0.000000
0.025582 1.000000 0.000000
0.034277 1.000000 0.000000
0.045002 1.000000 0.000000
0.099563 1.000000 0.000000
0.494790 1.000000 0.000000
1.000000 1.000000 0.000000
0.000000 0.000000 0.082500
0.505210 0.000000 0.082500
0.900437 0.000000 0.082500
0.954998 0.000000 0.082500
0.965723 0.000000 0.082500
0.974418 0.000000 0.082500
0.981180 0.000000 0.082500
0.985102 0.000000 0.082500
0.986357 0.000000 0.082500
0.986050 0.000000 0.082500
0.985580 0.000000 0.082500
0.993354 0.000000 0.082500
1.000000 0.000000 0.082500
0.000000 0.006646 0.082500
0.605032 0.017259 0.082500
0.913395 0.111200 0.082500
0.884955 0.333720 0.082500
0.898599 0.411985 0.082500
0.896968 0.529153 0.082500
0.898728 0.626160 0.082500
0.904092 0.701164 0.082500
0.913707 0.742052 0.082500
0.931706 0.745937 0.082500
0.954803 0.716914 0.082500
0.982741 0.605032 0.082500
1.000000 0.505210 0.082500
0.000000 0.014420 0.082500
0.716914 0.045197 0.082500
0.864893 0.220158 0.082500
0.847962 0.468663 0.082500
0.834714 0.618023 0.082500
0.829195 0.709466 0.082500
0.804073 0.753500 0.082500
0.773491 0.764590 0.082500
0.760058 0.784525 0.082500
0.759021 0.817573 0.082500
0.779842 0.864893 0.082500
0.888800 0.913396 0.082500
1.000000 0.900437 0.082500
0.000000 0.013950 0.082500
0.745937 0.068294 0.082500
0.817573 0.240979 0.082500
0.822987 0.490325 0.082500
0.733681 0.616201 0.082500
0.707311 0.668485 0.082500
0.617335 0.702482 0.082500
0.534590 0.751130 0.082500
0.513163 0.791072 0.082500
0.509675 0.822987 0.082500
0.531338 0.847963 0.082500
0.666280 0.884955 0.082500
1.000000 0.954998 0.082500
0.000000 0.013643 0.082500
0.742052 0.086293 0.082500
0.784525 0.239942 0.082500
0.791072 0.486837 0.082500
0.677518 0.586002 0.082500
0.591427 0.643016 0.082500
0.506810 0.655879 0.082500
0.461022 0.663081 0.082500
0.413999 0.677518 0.082500
0.383799 0.733681 0.082500
0.381978 0.834714 0.082500
0.588016 0.898599 0.082500
1.000000 0.965723 0.082500
0.000000 0.014898 0.082500
0.701164 0.095908 0.082500
0.764590 0.226509 0.082500
0.751130 0.465410 0.082500
0.663081 0.538978 0.082500
0.573705 0.581164 0.082500
0.502346 0.575955 0.082500
0.418836 0.573705 0.082500
0.356984 0.591428 0.082500
0.331515 0.707311 0.082500
0.290534 0.829195 0.082500
0.470848 0.896968 0.082500
1.000000 0.974418 0.082500
0.000000 0.018820 0.082500
0.626160 0.101272 0.082500
0.753500 0.195927 0.082500
0.702482 0.382665 0.082500
0.655879 0.493190 0.082500
0.575955 0.497654 0.082500
0.500000 0.500000 0.082500
0.424045 0.502346 0.082500
0.344121 0.506810 0.082500
0.297518 0.617335 0.082500
0.246500 0.804073 0.082500
0.373841 0.898728 0.082500
1.000000 0.981180 0.082500
0.000000 0.025582 0.082500
0.529152 0.103032 0.082500
0.709466 0.170805 0.082500
0.668485 0.292689 0.082500
0.643016 0.408573 0.082500
0.581164 0.426295 0.082500
0.497654 0.424045 0.082500
0.426295 0.418836 0.082500
0.336919 0.461022 0.082500
0.248870 0.534590 0.082500
0.235410 0.773490 0.082500
0.298837 0.904092 0.082500
1.000000 0.985102 0.082500
0.000000 0.034277 0.082500
0.411985 0.101401 0.082500
0.618023 0.165286 0.082500
0.616202 0.266319 0.082500
0.586002 0.322482 0.082500
0.538978 0.336919 0.082500
0.493190 0.344121 0.082500
0.408572 0.356985 0.082500
0.322482 0.413998 0.082500
0.208928 0.513162 0.082500
0.215475 0.760058 0.082500
0.257949 0.913707 0.082500
1.000000 0.986358 0.082500
0.000000 0.045003 0.082500
0.333720 0.115045 0.082500
0.468663 0.152038 0.082500
0.490325 0.177013 0.082500
0.486838 0.208928 0.082500
0.465410 0.248870 0.082500
0.382665 0.297519 0.082500
0.292689 0.331515 0.082500
0.266319 0.383798 0.082500
0.177013 0.509675 0.082500
0.182427 0.759020 0.082500
0.254064 0.931706 0.082500
1.000000 0.986050 0.082500
0.000000 0.099563 0.082500
0.111200 0.086605 0.082500
0.220158 0.135107 0.082500
0.240980 0.182427 0.082500
0.239942 0.215475 0.082500
0.226510 0.235410 0.082500
0.195927 0.246500 0.082500
0.170805 0.290534 0.082500
0.165286 0.381978 0.082500
0.152038 0.531338 0.082500
0.135107 0.779842 0.082500
0.283086 0.954803 0.082500
1.000000 0.985580 0.082500
0.000000 0.494790 0.082500
0.017259 0.394968 0.082500
0.045197 0.283086 0.082500
0.068294 0.254064 0.082500
0.086293 0.257949 0.082500
0.095908 0.298837 0.082500
0.101272 0.373841 0.082500
0.103032 0.470849 0.082500
0.101401 0.588016 0.082500
0.115045 0.666280 0.082500
0.086605 0.888800 0.082500
0.394968 0.982741 0.082500
1.000000 0.993354 0.082500
0.000000 1.000000 0.082500
0.006646 1.000000 0.082500
0.014420 1.000000 0.082500
0.013950 1.000000 0.082500
0.013642 1.000000 0.082500
0.014898 1.000000 0.082500
0.018820 1.000000 0.082500
0.025582 1.000000 0.082500
0.034277 1.000000 0.082500
0.045002 1.000000 0.082500
0.099563 1.000000 0.082500
0.494790 1.000000 0.082500
1.000000 1.000000 0.082500
0.000000 0.000000 0.165000
0.505210 0.000000 0.165000
0.900437 0.000000 0.165000
0.954998 0.000000 0.165000
0.965723 0.000000 0.165000
0.974418 0.000000 0.165000
0.981180 0.000000 0.165000
0.985102 0.000000 0.165000
0.986357 0.000000 0.165000
0.986050 0.000000 0.165000
0.985580 0.000000 0.165000
0.993354 0.000000 0.165000
1.000000 0.000000 0.165000
0.000000 0.006646 0.165000
0.605032 0.017259 0.165000
0.913395 0.111200 0.165000
0.884955 0.333720 0.165000
0.898599 0.411985 0.165000
0.896968 0.529153 0.165000
0.898728 0.626160 0.165000
0.904092 0.701164 0.165000
0.913707 0.742052 0.165000
0.931706 0.745937 0.165000
0.954803 0.716914 0.165000
0.982741 0.605032 0.165000
1.000000 0.505210 0.165000
0.000000 0.014420 0.165000
0.716914 0.045197 0.165000
[...]
POINT_DATA 845 
VECTORS pos float 
0.000000 0.000000 0.000000
0.505210 0.000000 0.000000
0.900437 0.000000 0.000000
0.954998 0.000000 0.000000
0.965723 0.000000 0.000000
0.974418 0.000000 0.000000
0.981180 0.000000 0.000000
0.985102 0.000000 0.000000
0.986357 0.000000 0.000000
0.986050 0.000000 0.000000
0.985580 0.000000 0.000000
0.993354 0.000000 0.000000
1.000000 0.000000 0.000000
0.000000 0.006646 0.000000
0.605032 0.017259 0.000000
0.913395 0.111200 0.000000
0.884955 0.333720 0.000000
0.898599 0.411985 0.000000
0.896968 0.529153 0.000000
0.898728 0.626160 0.000000
0.904092 0.701164 0.000000
0.913707 0.742052 0.000000
0.931706 0.745937 0.000000
0.954803 0.716914 0.000000
0.982741 0.605032 0.000000
1.000000 0.505210 0.000000
0.000000 0.014420 0.000000
0.716914 0.045197 0.000000
0.864893 0.220158 0.000000
0.847962 0.468663 0.000000
0.834714 0.618023 0.000000
0.829195 0.709466 0.000000
0.804073 0.753500 0.000000
0.773491 0.764590 0.000000
0.760058 0.784525 0.000000
0.759021 0.817573 0.000000
0.779842 0.864893 0.000000
0.888800 0.913396 0.000000
1.000000 0.900437 0.000000
0.000000 0.013950 0.000000
0.745937 0.068294 0.000000
0.817573 0.240979 0.000000
0.822987 0.490325 0.000000
0.733681 0.616201 0.000000
0.707311 0.668485 0.000000
0.617335 0.702482 0.000000
0.534590 0.751130 0.000000
0.513163 0.791072 0.000000
0.509675 0.822987 0.000000
0.531338 0.847963 0.000000
0.666280 0.884955 0.000000
1.000000 0.954998 0.000000
0.000000 0.013643 0.000000
0.742052 0.086293 0.000000
0.784525 0.239942 0.000000
0.791072 0.486837 0.000000
0.677518 0.586002 0.000000
0.591427 0.643016 0.000000
0.506810 0.655879 0.000000
0.461022 0.663081 0.000000
0.413999 0.677518 0.000000
0.383799 0.733681 0.000000
0.381978 0.834714 0.000000
0.588016 0.898599 0.000000
1.000000 0.965723 0.000000
0.000000 0.014898 0.000000
0.701164 0.095908 0.000000
0.764590 0.226509 0.000000
0.751130 0.465410 0.000000
0.663081 0.538978 0.000000
0.573705 0.581164 0.000000
0.502346 0.575955 0.000000
0.418836 0.573705 0.000000
0.356984 0.591428 0.000000
0.331515 0.707311 0.000000
0.290534 0.829195 0.000000
0.470848 0.896968 0.000000
1.000000 0.974418 0.000000
0.000000 0.018820 0.000000
0.626160 0.101272 0.000000
0.753500 0.195927 0.000000
0.702482 0.382665 0.000000
0.655879 0.493190 0.000000
0.575955 0.497654 0.000000
0.500000 0.500000 0.000000
0.424045 0.502346 0.000000
0.344121 0.506810 0.000000
0.297518 0.617335 0.000000
0.246500 0.804073 0.000000
0.373841 0.898728 0.000000
1.000000 0.981180 0.000000
0.000000 0.025582 0.000000
0.529152 0.103032 0.000000
0.709466 0.170805 0.000000
0.668485 0.292689 0.000000
0.643016 0.408573 0.000000
0.581164 0.426295 0.000000
0.497654 0.424045 0.000000
0.426295 0.418836 0.000000
0.336919 0.461022 0.000000
0.248870 0.534590 0.000000
0.235410 0.773490 0.000000
0.298837 0.904092 0.000000
1.000000 0.985102 0.000000
0.000000 0.034277 0.000000
0.411985 0.101401 0.000000
0.618023 0.165286 0.000000
0.616202 0.266319 0.000000
0.586002 0.322482 0.000000
0.538978 0.336919 0.000000
0.493190 0.344121 0.000000
0.408572 0.356985 0.000000
0.322482 0.413998 0.000000
0.208928 0.513162 0.000000
0.215475 0.760058 0.000000
0.257949 0.913707 0.000000
1.000000 0.986358 0.000000
0.000000 0.045003 0.000000
0.333720 0.115045 0.000000
0.468663 0.152038 0.000000
0.490325 0.177013 0.000000
0.486838 0.208928 0.000000
0.465410 0.248870 0.000000
0.382665 0.297519 0.000000
0.292689 0.331515 0.000000
0.266319 0.383798 0.000000
0.177013 0.509675 0.000000
0.182427 0.759020 0.000000
0.254064 0.931706 0.000000
1.000000 0.986050 0.000000
0.000000 0.099563 0.000000
0.111200 0.086605 0.000000
0.220158 0.135107 0.000000
0.240980 0.182427 0.000000
0.239942 0.215475 0.000000
0.226510 0.235410 0.000000
0.195927 0.246500 0.000000
0.170805 0.290534 0.000000
0.165286 0.381978 0.000000
0.152038 0.531338 0.000000
0.135107 0.779842 0.000000
0.283086 0.954803 0.000000
1.000000 0.985580 0.000000
0.000000 0.494790 0.000000
0.017259 0.394968 0.000000
0.045197 0.283086 0.000000
0.068294 0.254064 0.000000
0.086293 0.257949 0.000000
0.095908 0.298837 0.000000
0.101272 0.373841 0.000000
0.103032 0.470849 0.000000
0.101401 0.588016 0.000000
0.115045 0.666280 0.000000
0.086605 0.888800 0.000000
0.394968 0.982741 0.000000
1.000000 0.993354 0.000000
0.000000 1.000000 0.000000
0.006646 1.000000 0.000000
0.014420 1.000000 0.000000
0.013950 1.000000 0.000000
0.013642 1.000000 0.000000
0.014898 1.000000 0.000000
0.018820 1.000000 0.000000
0.025582 1.000000 0.000000
0.034277 1.000000 0.000000
0.045002 1.000000 0.000000
0.099563 1.000000 0.000000
0.494790 1.000000 0.000000
1.000000 1.000000 0.000000
0.000000 0.000000 0.082500
0.505210 0.000000 0.082500
0.900437 0.000000 0.082500
0.954998 0.000000 0.082500
0.965723 0.000000 0.082500
0.974418 0.000000 0.082500
0.981180 0.000000 0.082500
0.985102 0.000000 0.082500
0.986357 0.000000 0.082500
0.986050 0.000000 0.082500
0.985580 0.000000 0.082500
0.993354 0.000000 0.082500
1.000000 0.000000 0.082500
0.000000 0.006646 0.082500
0.605032 0.017259 0.082500
0.913395 0.111200 0.082500
0.884955 0.333720 0.082500
0.898599 0.411985 0.082500
0.896968 0.529153 0.082500
0.898728 0.626160 0.082500
0.904092 0.701164 0.082500
0.913707 0.742052 0.082500
0.931706 0.745937 0.082500
0.954803 0.716914 0.082500
0.982741 0.605032 0.082500
1.000000 0.505210 0.082500
0.000000 0.014420 0.082500
0.716914 0.045197 0.082500
0.864893 0.220158 0.082500
0.847962 0.468663 0.082500
0.834714 0.618023 0.082500
0.829195 0.709466 0.082500
0.804073 0.753500 0.082500
0.773491 0.764590 0.082500
0.760058 0.784525 0.082500
0.759021 0.817573 0.082500
0.779842 0.864893 0.082500
0.888800 0.913396 0.082500
1.000000 0.900437 0.082500
0.000000 0.013950 0.082500
0.745937 0.068294 0.082500
0.817573 0.240979 0.082500
0.822987 0.490325 0.082500
0.733681 0.616201 0.082500
0.707311 0.668485 0.082500
0.617335 0.702482 0.082500
0.534590 0.751130 0.082500
0.513163 0.791072 0.082500
0.509675 0.822987 0.082500
0.531338 0.847963 0.082500
0.666280 0.884955 0.082500
1.000000 0.954998 0.082500
0.000000 0.013643 0.082500
0.742052 0.086293 0.082500
0.784525 0.239942 0.082500
0.791072 0.486837 0.082500
0.677518 0.586002 0.082500
0.591427 0.643016 0.082500
0.506810 0.655879 0.082500
0.461022 0.663081 0.082500
0.413999 0.677518 0.082500
0.383799 0.733681 0.082500
0.381978 0.834714 0.082500
0.588016 0.898599 0.082500
1.000000 0.965723 0.082500
0.000000 0.014898 0.082500
0.701164 0.095908 0.082500
0.764590 0.226509 0.082500
0.751130 0.465410 0.082500
0.663081 0.538978 0.082500
0.573705 0.581164 0.082500
0.502346 0.575955 0.082500
0.418836 0.573705 0.082500
0.356984 0.591428 0.082500
0.331515 0.707311 0.082500
0.290534 0.829195 0.082500
0.470848 0.896968 0.082500
1.000000 0.974418 0.082500
0.000000 0.018820 0.082500
0.626160 0.101272 0.082500
0.753500 0.195927 0.082500
0.702482 0.382665 0.082500
0.655879 0.493190 0.082500
0.575955 0.497654 0.082500
0.500000 0.500000 0.082500
0.424045 0.502346 0.082500
0.344121 0.506810 0.082500
0.297518 0.617335 0.082500
0.246500 0.804073 0.082500
0.373841 0.898728 0.082500
1.000000 0.981180 0.082500
0.000000 0.025582 0.082500
0.529152 0.103032 0.082500
0.709466 0.170805 0.082500
0.668485 0.292689 0.082500
0.643016 0.408573 0.082500
0.581164 0.426295 0.082500
0.497654 0.424045 0.082500
0.426295 0.418836 0.082500
0.336919 0.461022 0.082500
0.248870 0.534590 0.082500
0.235410 0.773490 0.082500
0.298837 0.904092 0.082500
1.000000 0.985102 0.082500
0.000000 0.034277 0.082500
0.411985 0.101401 0.082500
0.618023 0.165286 0.082500
0.616202 0.266319 0.082500
0.586002 0.322482 0.082500
0.538978 0.336919 0.082500
0.493190 0.344121 0.082500
0.408572 0.356985 0.082500
0.322482 0.413998 0.082500
0.208928 0.513162 0.082500
0.215475 0.760058 0.082500
0.257949 0.913707 0.082500
1.000000 0.986358 0.082500
0.000000 0.045003 0.082500
0.333720 0.115045 0.082500
0.468663 0.152038 0.082500
0.490325 0.177013 0.082500
0.486838 0.208928 0.082500
0.465410 0.248870 0.082500
0.382665 0.297519 0.082500
0.292689 0.331515 0.082500
0.266319 0.383798 0.082500
0.177013 0.509675 0.082500
0.182427 0.759020 0.082500
0.254064 0.931706 0.082500
1.000000 0.986050 0.082500
0.000000 0.099563 0.082500
0.111200 0.086605 0.082500
0.220158 0.135107 0.082500
0.240980 0.182427 0.082500
0.239942 0.215475 0.082500
0.226510 0.235410 0.082500
0.195927 0.246500 0.082500
0.170805 0.290534 0.082500
0.165286 0.381978 0.082500
0.152038 0.531338 0.082500
0.135107 0.779842 0.082500
0.283086 0.954803 0.082500
1.000000 0.985580 0.082500
0.000000 0.494790 0.082500
0.017259 0.394968 0.082500
0.045197 0.283086 0.082500
0.068294 0.254064 0.082500
0.086293 0.257949 0.082500
0.095908 0.298837 0.082500
0.101272 0.373841 0.082500
0.103032 0.470849 0.082500
0.101401 0.588016 0.082500
0.115045 0.666280 0.082500
0.086605 0.888800 0.082500
0.394968 0.982741 0.082500
1.000000 0.993354 0.082500
0.000000 1.000000 0.082500
0.006646 1.000000 0.082500
0.014420 1.000000 0.082500
0.013950 1.000000 0.082500
0.013642 1.000000 0.082500
0.014898 1.000000 0.082500
0.018820 1.000000 0.082500
0.025582 1.000000 0.082500
0.034277 1.000000 0.082500
0.045002 1.000000 0.082500
0.099563 1.000000 0.082500
0.494790 1.000000 0.082500
1.000000 1.000000 0.082500
0.000000 0.000000 0.165000
0.505210 0.000000 0.165000
0.900437 0.000000 0.165000
0.954998 0.000000 0.165000
0.965723 0.000000 0.165000
0.974418 0.000000 0.165000
0.981180 0.000000 0.165000
0.985102 0.000000 0.165000
0.986357 0.000000 0.165000
0.986050 0.000000 0.165000
0.985580 0.000000 0.165000
0.993354 0.000000 0.165000
1.000000 0.000000 0.165000
0.000000 0.006646 0.165000
0.605032 0.017259 0.165000
0.913395 0.111200 0.165000
0.884955 0.333720 0.165000
0.898599 0.411985 0.165000
0.896968 0.529153 0.165000
0.898728 0.626160 0.165000
0.904092 0.701164 0.165000
0.913707 0.742052 0.165000
0.931706 0.745937 0.165000
0.954803 0.716914 0.165000
0.982741 0.605032 0.165000
1.000000 0.505210 0.165000
0.000000 0.014420 0.165000
0.716914 0.045197 0.165000
0.864893 0.220158 0.165000
0.847962 0.468663 0.165000
0.834714 0.618023 0.165000
0.829195 0.709466 0.165000
0.804073 0.753500 0.165000
0.773491 0.764590 0.165000
0.760058 0.784525 0.165000
0.759021 0.817573 0.165000
0.779842 0.864893 0.165000
0.888800 0.913396 0.165000
1.000000 0.900437 0.165000
0.000000 0.013950 0.165000
0.745937 0.068294 0.165000
0.817573 0.240979 0.165000
0.822987 0.490325 0.165000
0.733681 0.616201 0.165000
0.707311 0.668485 0.165000
0.617335 0.702482 0.165000
0.534590 0.751130 0.165000
0.513163 0.791072 0.165000
0.509675 0.822987 0.165000
0.531338 0.847963 0.165000
0.666280 0.884955 0.165000
1.000000 0.954998 0.165000
0.000000 0.013643 0.165000
0.742052 0.086293 0.165000
0.784525 0.239942 0.165000
0.791072 0.486837 0.165000
0.677518 0.586002 0.165000
0.591427 0.643016 0.165000
0.506810 0.655879 0.165000
0.461022 0.663081 0.165000
0.413999 0.677518 0.165000
0.383799 0.733681 0.165000
0.381978 0.834714 0.165000
0.588016 0.898599 0.165000
1.000000 0.965723 0.165000
0.000000 0.014898 0.165000
0.701164 0.095908 0.165000
0.764590 0.226509 0.165000
0.751130 0.465410 0.165000
0.663081 0.538978 0.165000
0.573705 0.581164 0.165000
0.502346 0.575955 0.165000
0.418836 0.573705 0.165000
0.356984 0.591428 0.165000
0.331515 0.707311 0.165000
0.290534 0.829195 0.165000
0.470848 0.896968 0.165000
1.000000 0.974418 0.165000
0.000000 0.018820 0.165000
0.626160 0.101272 0.165000
0.753500 0.195927 0.165000
0.702482 0.382665 0.165000
0.655879 0.493190 0.165000
0.575955 0.497654 0.165000
0.500000 0.500000 0.165000
0.424045 0.502346 0.165000
0.344121 0.506810 0.165000
0.297518 0.617335 0.165000
0.246500 0.804073 0.165000
0.373841 0.898728 0.165000
1.000000 0.981180 0.165000
0.000000 0.025582 0.165000
0.529152 0.103032 0.165000
0.709466 0.170805 0.165000
0.668485 0.292689 0.165000
0.643016 0.408573 0.165000
0.581164 0.426295 0.165000
0.497654 0.424045 0.165000
0.426295 0.418836 0.165000
0.336919 0.461022 0.165000
0.248870 0.534590 0.165000
0.235410 0.773490 0.165000
0.298837 0.904092 0.165000
1.000000 0.985102 0.165000
0.000000 0.034277 0.165000
0.411985 0.101401 0.165000
0.618023 0.165286 0.165000
0.616202 0.266319 0.165000
0.586002 0.322482 0.165000
0.538978 0.336919 0.165000
0.493190 0.344121 0.165000
0.408572 0.356985 0.165000
0.322482 0.413998 0.165000
0.208928 0.513162 0.165000
0.215475 0.760058 0.165000
0.257949 0.913707 0.165000
1.000000 0.986358 0.165000
0.000000 0.045003 0.165000
0.333720 0.115045 0.165000
0.468663 0.152038 0.165000
0.490325 0.177013 0.165000
0.486838 0.208928 0.165000
0.465410 0.248870 0.165000
0.382665 0.297519 0.165000
0.292689 0.331515 0.165000
0.266319 0.383798 0.165000
0.177013 0.509675 0.165000
0.182427 0.759020 0.165000
0.254064 0.931706 0.165000
1.000000 0.986050 0.165000
0.000000 0.099563 0.165000
0.111200 0.086605 0.165000
0.220158 0.135107 0.165000
0.240980 0.182427 0.165000
0.239942 0.215475 0.165000
0.226510 0.235410 0.165000
0.195927 0.246500 0.165000
0.170805 0.290534 0.165000
0.165286 0.381978 0.165000
0.152038 0.531338 0.165000
0.135107 0.779842 0.165000
0.283086 0.954803 0.165000
1.000000 0.985580 0.165000
0.000000 0.494790 0.165000
0.017259 0.394968 0.165000
0.045197 0.283086 0.165000
0.068294 0.254064 0.165000
0.086293 0.257949 0.165000
0.095908 0.298837 0.165000
0.101272 0.373841 0.165000
0.103032 0.470849 0.165000
0.101401 0.588016 0.165000
0.115045 0.666280 0.165000
0.086605 0.888800 0.165000
0.394968 0.982741 0.165000
1.000000 0.993354 0.165000
0.000000 1.000000 0.165000
0.006646 1.000000 0.165000
0.014420 1.000000 0.165000
0.013950 1.000000 0.165000
0.013642 1.000000 0.165000
0.014898 1.000000 0.165000
0.018820 1.000000 0.165000
0.025582 1.000000 0.165000
0.034277 1.000000 0.165000
0.045002 1.000000 0.165000
0.099563 1.000000 0.165000
0.494790 1.000000 0.165000
1.000000 1.000000 0.165000
0.000000 0.000000 0.247500
0.505210 0.000000 0.247500
0.900437 0.000000 0.247500
0.954998 0.000000 0.247500
0.965723 0.000000 0.247500
0.974418 0.000000 0.247500
0.981180 0.000000 0.247500
0.985102 0.000000 0.247500
0.986357 0.000000 0.247500
0.986050 0.000000 0.247500
0.985580 0.000000 0.247500
0.993354 0.000000 0.247500
1.000000 0.000000 0.247500
0.000000 0.006646 0.247500
0.605032 0.017259 0.247500
0.913395 0.111200 0.247500
0.884955 0.333720 0.247500
0.898599 0.411985 0.247500
0.896968 0.529153 0.247500
0.898728 0.626160 0.247500
0.904092 0.701164 0.247500
0.913707 0.742052 0.247500
0.931706 0.745937 0.247500
0.954803 0.716914 0.247500
0.982741 0.605032 0.247500
1.000000 0.505210 0.247500
0.000000 0.014420 0.247500
0.716914 0.045197 0.247500
0.864893 0.220158 0.247500
0.847962 0.468663 0.247500
0.834714 0.618023 0.247500
0.829195 0.709466 0.247500
0.804073 0.753500 0.247500
0.773491 0.764590 0.247500
0.760058 0.784525 0.247500
0.759021 0.817573 0.247500
0.779842 0.864893 0.247500
0.888800 0.913396 0.247500
1.000000 0.900437 0.247500
0.000000 0.013950 0.247500
0.745937 0.068294 0.247500
0.817573 0.240979 0.247500
0.822987 0.490325 0.247500
0.733681 0.616201 0.247500
0.707311 0.668485 0.247500
0.617335 0.702482 0.247500
0.534590 0.751130 0.247500
0.513163 0.791072 0.247500
0.509675 0.822987 0.247500
0.531338 0.847963 0.247500
0.666280 0.884955 0.247500
1.000000 0.954998 0.247500
0.000000 0.013643 0.247500
0.742052 0.086293 0.247500
0.784525 0.239942 0.247500
0.791072 0.486837 0.247500
0.677518 0.586002 0.247500
0.591427 0.643016 0.247500
0.506810 0.655879 0.247500
0.461022 0.663081 0.247500
0.413999 0.677518 0.247500
0.383799 0.733681 0.247500
0.381978 0.834714 0.247500
0.588016 0.898599 0.247500
1.000000 0.965723 0.247500
0.000000 0.014898 0.247500
0.701164 0.095908 0.247500
0.764590 0.226509 0.247500
0.751130 0.465410 0.247500
0.663081 0.538978 0.247500
0.573705 0.581164 0.247500
0.502346 0.575955 0.247500
0.418836 0.573705 0.247500
0.356984 0.591428 0.247500
0.331515 0.707311 0.247500
0.290534 0.829195 0.247500
0.470848 0.896968 0.247500
1.000000 0.974418 0.247500
0.000000 0.018820 0.247500
0.626160 0.101272 0.247500
0.753500 0.195927 0.247500
0.702482 0.382665 0.247500
0.655879 0.493190 0.247500
0.575955 0.497654 0.247500
0.500000 0.500000 0.247500
0.424045 0.502346 0.247500
0.344121 0.506810 0.247500
0.297518 0.617335 0.247500
0.246500 0.804073 0.247500
0.373841 0.898728 0.247500
1.000000 0.981180 0.247500
0.000000 0.025582 0.247500
0.529152 0.103032 0.247500
0.709466 0.170805 0.247500
0.668485 0.292689 0.247500
0.643016 0.408573 0.247500
0.581164 0.426295 0.247500
0.497654 0.424045 0.247500
0.426295 0.418836 0.247500
0.336919 0.461022 0.247500
0.248870 0.534590 0.247500
0.235410 0.773490 0.247500
0.298837 0.904092 0.247500
1.000000 0.985102 0.247500
0.000000 0.034277 0.247500
0.411985 0.101401 0.247500
0.618023 0.165286 0.247500
0.616202 0.266319 0.247500
0.586002 0.322482 0.247500
0.538978 0.336919 0.247500
0.493190 0.344121 0.247500
0.408572 0.356985 0.247500
0.322482 0.413998 0.247500
0.208928 0.513162 0.247500
0.215475 0.760058 0.247500
0.257949 0.913707 0.247500
1.000000 0.986358 0.247500
0.000000 0.045003 0.247500
0.333720 0.115045 0.247500
0.468663 0.152038 0.247500
0.490325 0.177013 0.247500
0.486838 0.208928 0.247500
0.465410 0.248870 0.247500
0.382665 0.297519 0.247500
0.292689 0.331515 0.247500
0.266319 0.383798 0.247500
0.177013 0.509675 0.247500
0.182427 0.759020 0.247500
0.254064 0.931706 0.247500
1.000000 0.986050 0.247500
0.000000 0.099563 0.247500
0.111200 0.086605 0.247500
0.220158 0.135107 0.247500
0.240980 0.182427 0.247500
0.239942 0.215475 0.247500
0.226510 0.235410 0.247500
0.195927 0.246500 0.247500
0.170805 0.290534 0.247500
0.165286 0.381978 0.247500
0.152038 0.531338 0.247500
0.135107 0.779842 0.247500
0.283086 0.954803 0.247500
1.000000 0.985580 0.247500
0.000000 0.494790 0.247500
0.017259 0.394968 0.247500
0.045197 0.283086 0.247500
0.068294 0.254064 0.247500
0.086293 0.257949 0.247500
0.095908 0.298837 0.247500
0.101272 0.373841 0.247500
0.103032 0.470849 0.247500
0.101401 0.588016 0.247500
0.115045 0.666280 0.247500
0.086605 0.888800 0.247500
0.394968 0.982741 0.247500
1.000000 0.993354 0.247500
0.000000 1.000000 0.247500
0.006646 1.000000 0.247500
0.014420 1.000000 0.247500
0.013950 1.000000 0.247500
0.013642 1.000000 0.247500
0.014898 1.000000 0.247500
0.018820 1.000000 0.247500
0.025582 1.000000 0.247500
0.034277 1.000000 0.247500
0.045002 1.000000 0.247500
0.099563 1.000000 0.247500
0.494790 1.000000 0.247500
1.000000 1.000000 0.247500
0.000000 0.000000 0.330000
0.505210 0.000000 0.330000
0.900437 0.000000 0.330000
0.954998 0.000000 0.330000
0.965723 0.000000 0.330000
0.974418 0.000000 0.330000
0.981180 0.000000 0.330000
0.985102 0.000000 0.330000
0.986357 0.000000 0.330000
0.986050 0.000000 0.330000
0.985580 0.000000 0.330000
0.993354 0.000000 0.330000
1.000000 0.000000 0.330000
0.000000 0.006646 0.330000
0.605032 0.017259 0.330000
0.913395 0.111200 0.330000
0.884955 0.333720 0.330000
0.898599 0.411985 0.330000
0.896968 0.529153 0.330000
0.898728 0.626160 0.330000
0.904092 0.701164 0.330000
0.913707 0.742052 0.330000
0.931706 0.745937 0.330000
0.954803 0.716914 0.330000
0.982741 0.605032 0.330000
1.000000 0.505210 0.330000
0.000000 0.014420 0.330000
0.716914 0.045197 0.330000
0.864893 0.220158 0.330000
0.847962 0.468663 0.330000
0.834714 0.618023 0.330000
0.829195 0.709466 0.330000
0.804073 0.753500 0.330000
0.773491 0.764590 0.330000
0.760058 0.784525 0.330000
0.759021 0.817573 0.330000
0.779842 0.864893 0.330000
0.888800 0.913396 0.330000
1.000000 0.900437 0.330000
0.000000 0.013950 0.330000
0.745937 0.068294 0.330000
0.817573 0.240979 0.330000
0.822987 0.490325 0.330000
0.733681 0.616201 0.330000
0.707311 0.668485 0.330000
0.617335 0.702482 0.330000
0.534590 0.751130 0.330000
0.513163 0.791072 0.330000
0.509675 0.822987 0.330000
0.531338 0.847963 0.330000
0.666280 0.884955 0.330000
1.000000 0.954998 0.330000
0.000000 0.013643 0.330000
0.742052 0.086293 0.330000
0.784525 0.239942 0.330000
0.791072 0.486837 0.330000
0.677518 0.586002 0.330000
0.591427 0.643016 0.330000
0.506810 0.655879 0.330000
0.461022 0.663081 0.330000
0.413999 0.677518 0.330000
0.383799 0.733681 0.330000
0.381978 0.834714 0.330000