# vtk DataFile Version 2.0
Mesh for Fierro
ASCII 
DATASET UNSTRUCTURED_GRID

POINTS 845 float
0.000000 0.000000 0.000000
0.558362 0.000000 0.000000
0.890650 0.000000 0.000000
0.917325 0.000000 0.000000
0.936187 0.000000 0.000000
0.951505 0.000000 0.000000
0.963247 0.000000 0.000000
0.970890 0.000000 0.000000
0.976039 0.000000 0.000000
0.980354 0.000000 0.000000
0.984143 0.000000 0.000000
0.992371 0.000000 0.000000
1.000000 0.000000 0.000000
0.000000 0.007629 0.000000
0.591090 0.016502 0.000000
0.859755 0.078546 0.000000
0.869346 0.204954 0.000000
0.897043 0.279830 0.000000
0.905426 0.375608 0.000000
0.913251 0.460413 0.000000
0.921353 0.535926 0.000000
0.930398 0.594327 0.000000
0.943551 0.631600 0.000000
0.959696 0.646542 0.000000
0.983498 0.591090 0.000000
1.000000 0.558362 0.000000
0.000000 0.015857 0.000000
0.646542 0.040304 0.000000
0.805471 0.152671 0.000000
0.841799 0.295481 0.000000
0.845175 0.464011 0.000000
0.846222 0.554752 0.000000
0.837102 0.631666 0.000000
0.814481 0.678835 0.000000
0.801703 0.715147 0.000000
0.811060 0.753231 0.000000
0.847329 0.805471 0.000000
0.921455 0.859756 0.000000
1.000000 0.890650 0.000000
0.000000 0.019646 0.000000
0.631600 0.056449 0.000000
0.753231 0.188940 0.000000
0.816284 0.353288 0.000000
0.761135 0.492001 0.000000
0.756201 0.575966 0.000000
0.707052 0.646265 0.000000
0.658076 0.710654 0.000000
0.639250 0.770511 0.000000
0.646712 0.816284 0.000000
0.704520 0.841799 0.000000
0.795046 0.869346 0.000000
1.000000 0.917325 0.000000
0.000000 0.023961 0.000000
0.594327 0.069602 0.000000
0.715147 0.198297 0.000000
0.770511 0.360750 0.000000
0.701536 0.482947 0.000000
0.663600 0.580364 0.000000
0.591927 0.625031 0.000000
0.552350 0.668951 0.000000
0.517053 0.701536 0.000000
0.507999 0.761135 0.000000
0.535989 0.845175 0.000000
0.720171 0.897043 0.000000
1.000000 0.936187 0.000000
0.000000 0.029110 0.000000
0.535926 0.078647 0.000000
0.678835 0.185519 0.000000
0.710654 0.341925 0.000000
0.668951 0.447650 0.000000
0.611442 0.526412 0.000000
0.540487 0.564845 0.000000
0.473588 0.611442 0.000000
0.419636 0.663600 0.000000
0.424034 0.756201 0.000000
0.445248 0.846222 0.000000
0.624393 0.905426 0.000000
1.000000 0.951505 0.000000
0.000000 0.036752 0.000000
0.460413 0.086749 0.000000
0.631666 0.162898 0.000000
0.646265 0.292948 0.000000
0.625031 0.408073 0.000000
0.564845 0.459513 0.000000
0.500000 0.500000 0.000000
0.435155 0.540487 0.000000
0.374969 0.591927 0.000000
0.353735 0.707052 0.000000
0.368334 0.837102 0.000000
0.539588 0.913251 0.000000
1.000000 0.963247 0.000000
0.000000 0.048495 0.000000
0.375608 0.094574 0.000000
0.554752 0.153778 0.000000
0.575966 0.243799 0.000000
0.580364 0.336400 0.000000
0.526412 0.388558 0.000000
0.459513 0.435155 0.000000
0.388558 0.473588 0.000000
0.331049 0.552350 0.000000
0.289347 0.658076 0.000000
0.321165 0.814481 0.000000
0.464075 0.921353 0.000000
1.000000 0.970890 0.000000
0.000000 0.063813 0.000000
0.279830 0.102957 0.000000
0.464011 0.154825 0.000000
0.492001 0.238865 0.000000
0.482948 0.298464 0.000000
0.447650 0.331049 0.000000
0.408073 0.374969 0.000000
0.336400 0.419636 0.000000
0.298464 0.517052 0.000000
0.229489 0.639250 0.000000
0.284852 0.801703 0.000000
0.405674 0.930399 0.000000
1.000000 0.976039 0.000000
0.000000 0.082675 0.000000
0.204954 0.130654 0.000000
0.295480 0.158200 0.000000
0.353288 0.183716 0.000000
0.360750 0.229489 0.000000
0.341925 0.289347 0.000000
0.292948 0.353735 0.000000
0.243799 0.424034 0.000000
0.238865 0.507999 0.000000
0.183716 0.646712 0.000000
0.246769 0.811059 0.000000
0.368401 0.943552 0.000000
1.000000 0.980354 0.000000
0.000000 0.109350 0.000000
0.078546 0.140245 0.000000
0.152671 0.194529 0.000000
0.188940 0.246769 0.000000
0.198297 0.284852 0.000000
0.185519 0.321165 0.000000
0.162898 0.368334 0.000000
0.153778 0.445248 0.000000
0.154825 0.535989 0.000000
0.158200 0.704520 0.000000
0.194529 0.847329 0.000000
0.353459 0.959696 0.000000
1.000000 0.984143 0.000000
0.000000 0.441638 0.000000
0.016502 0.408910 0.000000
0.040304 0.353459 0.000000
0.056448 0.368401 0.000000
0.069601 0.405674 0.000000
0.078647 0.464076 0.000000
0.086749 0.539588 0.000000
0.094574 0.624393 0.000000
0.102957 0.720171 0.000000
0.130654 0.795046 0.000000
0.140245 0.921454 0.000000
0.408910 0.983498 0.000000
1.000000 0.992371 0.000000
0.000000 1.000000 0.000000
0.007629 1.000000 0.000000
0.015857 1.000000 0.000000
0.019646 1.000000 0.000000
0.023961 1.000000 0.000000
0.029110 1.000000 0.000000
0.036752 1.000000 0.000000
0.048495 1.000000 0.000000
0.063813 1.000000 0.000000
0.082675 1.000000 0.000000
0.109350 1.000000 0.000000
0.441638 1.000000 0.000000
1.000000 1.000000 0.000000
0.000000 0.000000 0.082500
0.558362 0.000000 0.082500
0.890650 0.000000 0.082500
0.917325 0.000000 0.082500
0.936187 0.000000 0.082500
0.951505 0.000000 0.082500
0.963247 0.000000 0.082500
0.970890 0.000000 0.082500
0.976039 0.000000 0.082500
0.980354 0.000000 0.082500
0.984143 0.000000 0.082500
0.992371 0.000000 0.082500
1.000000 0.000000 0.082500
0.000000 0.007629 0.082500
0.591090 0.016502 0.082500
0.859755 0.078546 0.082500
0.869346 0.204954 0.082500
0.897043 0.279830 0.082500
0.905426 0.375608 0.082500
0.913251 0.460413 0.082500
0.921353 0.535926 0.082500
0.930398 0.594327 0.082500
0.943551 0.631600 0.082500
0.959696 0.646542 0.082500
0.983498 0.591090 0.082500
1.000000 0.558362 0.082500
0.000000 0.015857 0.082500
0.646542 0.040304 0.082500
0.805471 0.152671 0.082500
0.841799 0.295481 0.082500
0.845175 0.464011 0.082500
0.846222 0.554752 0.082500
0.837102 0.631666 0.082500
0.814481 0.678835 0.082500
0.801703 0.715147 0.082500
0.811060 0.753231 0.082500
0.847329 0.805471 0.082500
0.921455 0.859756 0.082500
1.000000 0.890650 0.082500
0.000000 0.019646 0.082500
0.631600 0.056449 0.082500
0.753231 0.188940 0.082500
0.816284 0.353288 0.082500
0.761135 0.492001 0.082500
0.756201 0.575966 0.082500
0.707052 0.646265 0.082500
0.658076 0.710654 0.082500
0.639250 0.770511 0.082500
0.646712 0.816284 0.082500
0.704520 0.841799 0.082500
0.795046 0.869346 0.082500
1.000000 0.917325 0.082500
0.000000 0.023961 0.082500
0.594327 0.069602 0.082500
0.715147 0.198297 0.082500
0.770511 0.360750 0.082500
0.701536 0.482947 0.082500
0.663600 0.580364 0.082500
0.591927 0.625031 0.082500
0.552350 0.668951 0.082500
0.517053 0.701536 0.082500
0.507999 0.761135 0.082500
0.535989 0.845175 0.082500
0.720171 0.897043 0.082500
1.000000 0.936187 0.082500
0.000000 0.029110 0.082500
0.535926 0.078647 0.082500
0.678835 0.185519 0.082500
0.710654 0.341925 0.082500
0.668951 0.447650 0.082500
0.611442 0.526412 0.082500
0.540487 0.564845 0.082500
0.473588 0.611442 0.082500
0.419636 0.663600 0.082500
0.424034 0.756201 0.082500
0.445248 0.846222 0.082500
0.624393 0.905426 0.082500
1.000000 0.951505 0.082500
0.000000 0.036752 0.082500
0.460413 0.086749 0.082500
0.631666 0.162898 0.082500
0.646265 0.292948 0.082500
0.625031 0.408073 0.082500
0.564845 0.459513 0.082500
0.500000 0.500000 0.082500
0.435155 0.540487 0.082500
0.374969 0.591927 0.082500
0.353735 0.707052 0.082500
0.368334 0.837102 0.082500
0.539588 0.913251 0.082500
1.000000 0.963247 0.082500
0.000000 0.048495 0.082500
0.375608 0.094574 0.082500
0.554752 0.153778 0.082500
0.575966 0.243799 0.082500
0.580364 0.336400 0.082500
0.526412 0.388558 0.082500
0.459513 0.435155 0.082500
0.388558 0.473588 0.082500
0.331049 0.552350 0.082500
0.289347 0.658076 0.082500
0.321165 0.814481 0.082500
0.464075 0.921353 0.082500
1.000000 0.970890 0.082500
0.000000 0.063813 0.082500
0.279830 0.102957 0.082500
0.464011 0.154825 0.082500
0.492001 0.238865 0.082500
0.482948 0.298464 0.082500
0.447650 0.331049 0.082500
0.408073 0.374969 0.082500
0.336400 0.419636 0.082500
0.298464 0.517052 0.082500
0.229489 0.639250 0.082500
0.284852 0.801703 0.082500
0.405674 0.930399 0.082500
1.000000 0.976039 0.082500
0.000000 0.082675 0.082500
0.204954 0.130654 0.082500
0.295480 0.158200 0.082500
0.353288 0.183716 0.082500
0.360750 0.229489 0.082500
0.341925 0.289347 0.082500
0.292948 0.353735 0.082500
0.243799 0.424034 0.082500
0.238865 0.507999 0.082500
0.183716 0.646712 0.082500
0.246769 0.811059 0.082500
0.368401 0.943552 0.082500
1.000000 0.980354 0.082500
0.000000 0.109350 0.082500
0.078546 0.140245 0.082500
0.152671 0.194529 0.082500
0.188940 0.246769 0.082500
0.198297 0.284852 0.082500
0.185519 0.321165 0.082500
0.162898 0.368334 0.082500
0.153778 0.445248 0.082500
0.154825 0.535989 0.082500
0.158200 0.704520 0.082500
0.194529 0.847329 0.082500
0.353459 0.959696 0.082500
1.000000 0.984143 0.082500
0.000000 0.441638 0.082500
0.016502 0.408910 0.082500
0.040304 0.353459 0.082500
0.056448 0.368401 0.082500
0.069601 0.405674 0.082500
0.078647 0.464076 0.082500
0.086749 0.539588 0.082500
0.094574 0.624393 0.082500
0.102957 0.720171 0.082500
0.130654 0.795046 0.082500
0.140245 0.921454 0.082500
0.408910 0.983498 0.082500
1.000000 0.992371 0.082500
0.000000 1.000000 0.082500
0.007629 1.000000 0.082500
0.015857 1.000000 0.082500
0.019646 1.000000 0.082500
0.023961 1.000000 0.082500
0.029110 1.000000 0.082500
0.036752 1.000000 0.082500
0.048495 1.000000 0.082500
0.063813 1.000000 0.082500
0.082675 1.000000 0.082500
0.109350 1.000000 0.082500
0.441638 1.000000 0.082500
1.000000 1.000000 0.082500
0.000000 0.000000 0.165000
0.558362 0.000000 0.165000
0.890650 0.000000 0.165000
0.917325 0.000000 0.165000
0.936187 0.000000 0.165000
0.951505 0.000000 0.165000
0.963247 0.000000 0.165000
0.970890 0.000000 0.165000
0.976039 0.000000 0.165000
0.980354 0.000000 0.165000
0.984143 0.000000 0.165000
0.992371 0.000000 0.165000
1.000000 0.000000 0.165000
0.000000 0.007629 0.165000
0.591090 0.016502 0.165000
0.859755 0.078546 0.165000
0.869346 0.204954 0.165000
0.897043 0.279830 0.165000
0.905426 0.375608 0.165000
0.913251 0.460413 0.165000
0.921353 0.535926 0.165000
0.930398 0.594327 0.165000
0.943551 0.631600 0.165000
0.959696 0.646542 0.165000
0.983498 0.591090 0.165000
1.000000 0.558362 0.165000
0.000000 0.015857 0.165000
0.646542 0.040304 0.165000
[...]
POINT_DATA 845 
VECTORS pos float 
0.000000 0.000000 0.000000
0.558362 0.000000 0.000000
0.890650 0.000000 0.000000
0.917325 0.000000 0.000000
0.936187 0.000000 0.000000
0.951505 0.000000 0.000000
0.963247 0.000000 0.000000
0.970890 0.000000 0.000000
0.976039 0.000000 0.000000
0.980354 0.000000 0.000000
0.984143 0.000000 0.000000
0.992371 0.000000 0.000000
1.000000 0.000000 0.000000
0.000000 0.007629 0.000000
0.591090 0.016502 0.000000
0.859755 0.078546 0.000000
0.869346 0.204954 0.000000
0.897043 0.279830 0.000000
0.905426 0.375608 0.000000
0.913251 0.460413 0.000000
0.921353 0.535926 0.000000
0.930398 0.594327 0.000000
0.943551 0.631600 0.000000
0.959696 0.646542 0.000000
0.983498 0.591090 0.000000
1.000000 0.558362 0.000000
0.000000 0.015857 0.000000
0.646542 0.040304 0.000000
0.805471 0.152671 0.000000
0.841799 0.295481 0.000000
0.845175 0.464011 0.000000
0.846222 0.554752 0.000000
0.837102 0.631666 0.000000
0.814481 0.678835 0.000000
0.801703 0.715147 0.000000
0.811060 0.753231 0.000000
0.847329 0.805471 0.000000
0.921455 0.859756 0.000000
1.000000 0.890650 0.000000
0.000000 0.019646 0.000000
0.631600 0.056449 0.000000
0.753231 0.188940 0.000000
0.816284 0.353288 0.000000
0.761135 0.492001 0.000000
0.756201 0.575966 0.000000
0.707052 0.646265 0.000000
0.658076 0.710654 0.000000
0.639250 0.770511 0.000000
0.646712 0.816284 0.000000
0.704520 0.841799 0.000000
0.795046 0.869346 0.000000
1.000000 0.917325 0.000000
0.000000 0.023961 0.000000
0.594327 0.069602 0.000000
0.715147 0.198297 0.000000
0.770511 0.360750 0.000000
0.701536 0.482947 0.000000
0.663600 0.580364 0.000000
0.591927 0.625031 0.000000
0.552350 0.668951 0.000000
0.517053 0.701536 0.000000
0.507999 0.761135 0.000000
0.535989 0.845175 0.000000
0.720171 0.897043 0.000000
1.000000 0.936187 0.000000
0.000000 0.029110 0.000000
0.535926 0.078647 0.000000
0.678835 0.185519 0.000000
0.710654 0.341925 0.000000
0.668951 0.447650 0.000000
0.611442 0.526412 0.000000
0.540487 0.564845 0.000000
0.473588 0.611442 0.000000
0.419636 0.663600 0.000000
0.424034 0.756201 0.000000
0.445248 0.846222 0.000000
0.624393 0.905426 0.000000
1.000000 0.951505 0.000000
0.000000 0.036752 0.000000
0.460413 0.086749 0.000000
0.631666 0.162898 0.000000
0.646265 0.292948 0.000000
0.625031 0.408073 0.000000
0.564845 0.459513 0.000000
0.500000 0.500000 0.000000
0.435155 0.540487 0.000000
0.374969 0.591927 0.000000
0.353735 0.707052 0.000000
0.368334 0.837102 0.000000
0.539588 0.913251 0.000000
1.000000 0.963247 0.000000
0.000000 0.048495 0.000000
0.375608 0.094574 0.000000
0.554752 0.153778 0.000000
0.575966 0.243799 0.000000
0.580364 0.336400 0.000000
0.526412 0.388558 0.000000
0.459513 0.435155 0.000000
0.388558 0.473588 0.000000
0.331049 0.552350 0.000000
0.289347 0.658076 0.000000
0.321165 0.814481 0.000000
0.464075 0.921353 0.000000
1.000000 0.970890 0.000000
0.000000 0.063813 0.000000
0.279830 0.102957 0.000000
0.464011 0.154825 0.000000
0.492001 0.238865 0.000000
0.482948 0.298464 0.000000
0.447650 0.331049 0.000000
0.408073 0.374969 0.000000
0.336400 0.419636 0.000000
0.298464 0.517052 0.000000
0.229489 0.639250 0.000000
0.284852 0.801703 0.000000
0.405674 0.930399 0.000000
1.000000 0.976039 0.000000
0.000000 0.082675 0.000000
0.204954 0.130654 0.000000
0.295480 0.158200 0.000000
0.353288 0.183716 0.000000
0.360750 0.229489 0.000000
0.341925 0.289347 0.000000
0.292948 0.353735 0.000000
0.243799 0.424034 0.000000
0.238865 0.507999 0.000000
0.183716 0.646712 0.000000
0.246769 0.811059 0.000000
0.368401 0.943552 0.000000
1.000000 0.980354 0.000000
0.000000 0.109350 0.000000
0.078546 0.140245 0.000000
0.152671 0.194529 0.000000
0.188940 0.246769 0.000000
0.198297 0.284852 0.000000
0.185519 0.321165 0.000000
0.162898 0.368334 0.000000
0.153778 0.445248 0.000000
0.154825 0.535989 0.000000
0.158200 0.704520 0.000000
0.194529 0.847329 0.000000
0.353459 0.959696 0.000000
1.000000 0.984143 0.000000
0.000000 0.441638 0.000000
0.016502 0.408910 0.000000
0.040304 0.353459 0.000000
0.056448 0.368401 0.000000
0.069601 0.405674 0.000000
0.078647 0.464076 0.000000
0.086749 0.539588 0.000000
0.094574 0.624393 0.000000
0.102957 0.720171 0.000000
0.130654 0.795046 0.000000
0.140245 0.921454 0.000000
0.408910 0.983498 0.000000
1.000000 0.992371 0.000000
0.000000 1.000000 0.000000
0.007629 1.000000 0.000000
0.015857 1.000000 0.000000
0.019646 1.000000 0.000000
0.023961 1.000000 0.000000
0.029110 1.000000 0.000000
0.036752 1.000000 0.000000
0.048495 1.000000 0.000000
0.063813 1.000000 0.000000
0.082675 1.000000 0.000000
0.109350 1.000000 0.000000
0.441638 1.000000 0.000000
1.000000 1.000000 0.000000
0.000000 0.000000 0.082500
0.558362 0.000000 0.082500
0.890650 0.000000 0.082500
0.917325 0.000000 0.082500
0.936187 0.000000 0.082500
0.951505 0.000000 0.082500
0.963247 0.000000 0.082500
0.970890 0.000000 0.082500
0.976039 0.000000 0.082500
0.980354 0.000000 0.082500
0.984143 0.000000 0.082500
0.992371 0.000000 0.082500
1.000000 0.000000 0.082500
0.000000 0.007629 0.082500
0.591090 0.016502 0.082500
0.859755 0.078546 0.082500
0.869346 0.204954 0.082500
0.897043 0.279830 0.082500
0.905426 0.375608 0.082500
0.913251 0.460413 0.082500
0.921353 0.535926 0.082500
0.930398 0.594327 0.082500
0.943551 0.631600 0.082500
0.959696 0.646542 0.082500
0.983498 0.591090 0.082500
1.000000 0.558362 0.082500
0.000000 0.015857 0.082500
0.646542 0.040304 0.082500
0.805471 0.152671 0.082500
0.841799 0.295481 0.082500
0.845175 0.464011 0.082500
0.846222 0.554752 0.082500
0.837102 0.631666 0.082500
0.814481 0.678835 0.082500
0.801703 0.715147 0.082500
0.811060 0.753231 0.082500
0.847329 0.805471 0.082500
0.921455 0.859756 0.082500
1.000000 0.890650 0.082500
0.000000 0.019646 0.082500
0.631600 0.056449 0.082500
0.753231 0.188940 0.082500
0.816284 0.353288 0.082500
0.761135 0.492001 0.082500
0.756201 0.575966 0.082500
0.707052 0.646265 0.082500
0.658076 0.710654 0.082500
0.639250 0.770511 0.082500
0.646712 0.816284 0.082500
0.704520 0.841799 0.082500
0.795046 0.869346 0.082500
1.000000 0.917325 0.082500
0.000000 0.023961 0.082500
0.594327 0.069602 0.082500
0.715147 0.198297 0.082500
0.770511 0.360750 0.082500
0.701536 0.482947 0.082500
0.663600 0.580364 0.082500
0.591927 0.625031 0.082500
0.552350 0.668951 0.082500
0.517053 0.701536 0.082500
0.507999 0.761135 0.082500
0.535989 0.845175 0.082500
0.720171 0.897043 0.082500
1.000000 0.936187 0.082500
0.000000 0.029110 0.082500
0.535926 0.078647 0.082500
0.678835 0.185519 0.082500
0.710654 0.341925 0.082500
0.668951 0.447650 0.082500
0.611442 0.526412 0.082500
0.540487 0.564845 0.082500
0.473588 0.611442 0.082500
0.419636 0.663600 0.082500
0.424034 0.756201 0.082500
0.445248 0.846222 0.082500
0.624393 0.905426 0.082500
1.000000 0.951505 0.082500
0.000000 0.036752 0.082500
0.460413 0.086749 0.082500
0.631666 0.162898 0.082500
0.646265 0.292948 0.082500
0.625031 0.408073 0.082500
0.564845 0.459513 0.082500
0.500000 0.500000 0.082500
0.435155 0.540487 0.082500
0.374969 0.591927 0.082500
0.353735 0.707052 0.082500
0.368334 0.837102 0.082500
0.539588 0.913251 0.082500
1.000000 0.963247 0.082500
0.000000 0.048495 0.082500
0.375608 0.094574 0.082500
0.554752 0.153778 0.082500
0.575966 0.243799 0.082500
0.580364 0.336400 0.082500
0.526412 0.388558 0.082500
0.459513 0.435155 0.082500
0.388558 0.473588 0.082500
0.331049 0.552350 0.082500
0.289347 0.658076 0.082500
0.321165 0.814481 0.082500
0.464075 0.921353 0.082500
1.000000 0.970890 0.082500
0.000000 0.063813 0.082500
0.279830 0.102957 0.082500
0.464011 0.154825 0.082500
0.492001 0.238865 0.082500
0.482948 0.298464 0.082500
0.447650 0.331049 0.082500
0.408073 0.374969 0.082500
0.336400 0.419636 0.082500
0.298464 0.517052 0.082500
0.229489 0.639250 0.082500
0.284852 0.801703 0.082500
0.405674 0.930399 0.082500
1.000000 0.976039 0.082500
0.000000 0.082675 0.082500
0.204954 0.130654 0.082500
0.295480 0.158200 0.082500
0.353288 0.183716 0.082500
0.360750 0.229489 0.082500
0.341925 0.289347 0.082500
0.292948 0.353735 0.082500
0.243799 0.424034 0.082500
0.238865 0.507999 0.082500
0.183716 0.646712 0.082500
0.246769 0.811059 0.082500
0.368401 0.943552 0.082500
1.000000 0.980354 0.082500
0.000000 0.109350 0.082500
0.078546 0.140245 0.082500
0.152671 0.194529 0.082500
0.188940 0.246769 0.082500
0.198297 0.284852 0.082500
0.185519 0.321165 0.082500
0.162898 0.368334 0.082500
0.153778 0.445248 0.082500
0.154825 0.535989 0.082500
0.158200 0.704520 0.082500
0.194529 0.847329 0.082500
0.353459 0.959696 0.082500
1.000000 0.984143 0.082500
0.000000 0.441638 0.082500
0.016502 0.408910 0.082500
0.040304 0.353459 0.082500
0.056448 0.368401 0.082500
0.069601 0.405674 0.082500
0.078647 0.464076 0.082500
0.086749 0.539588 0.082500
0.094574 0.624393 0.082500
0.102957 0.720171 0.082500
0.130654 0.795046 0.082500
0.140245 0.921454 0.082500
0.408910 0.983498 0.082500
1.000000 0.992371 0.082500
0.000000 1.000000 0.082500
0.007629 1.000000 0.082500
0.015857 1.000000 0.082500
0.019646 1.000000 0.082500
0.023961 1.000000 0.082500
0.029110 1.000000 0.082500
0.036752 1.000000 0.082500
0.048495 1.000000 0.082500
0.063813 1.000000 0.082500
0.082675 1.000000 0.082500
0.109350 1.000000 0.082500
0.441638 1.000000 0.082500
1.000000 1.000000 0.082500
0.000000 0.000000 0.165000
0.558362 0.000000 0.165000
0.890650 0.000000 0.165000
0.917325 0.000000 0.165000
0.936187 0.000000 0.165000
0.951505 0.000000 0.165000
0.963247 0.000000 0.165000
0.970890 0.000000 0.165000
0.976039 0.000000 0.165000
0.980354 0.000000 0.165000
0.984143 0.000000 0.165000
0.992371 0.000000 0.165000
1.000000 0.000000 0.165000
0.000000 0.007629 0.165000
0.591090 0.016502 0.165000
0.859755 0.078546 0.165000
0.869346 0.204954 0.165000
0.897043 0.279830 0.165000
0.905426 0.375608 0.165000
0.913251 0.460413 0.165000
0.921353 0.535926 0.165000
0.930398 0.594327 0.165000
0.943551 0.631600 0.165000
0.959696 0.646542 0.165000
0.983498 0.591090 0.165000
1.000000 0.558362 0.165000
0.000000 0.015857 0.165000
0.646542 0.040304 0.165000
0.805471 0.152671 0.165000
0.841799 0.295481 0.165000
0.845175 0.464011 0.165000
0.846222 0.554752 0.165000
0.837102 0.631666 0.165000
0.814481 0.678835 0.165000
0.801703 0.715147 0.165000
0.811060 0.753231 0.165000
0.847329 0.805471 0.165000
0.921455 0.859756 0.165000
1.000000 0.890650 0.165000
0.000000 0.019646 0.165000
0.631600 0.056449 0.165000
0.753231 0.188940 0.165000
0.816284 0.353288 0.165000
0.761135 0.492001 0.165000
0.756201 0.575966 0.165000
0.707052 0.646265 0.165000
0.658076 0.710654 0.165000
0.639250 0.770511 0.165000
0.646712 0.816284 0.165000
0.704520 0.841799 0.165000
0.795046 0.869346 0.165000
1.000000 0.917325 0.165000
0.000000 0.023961 0.165000
0.594327 0.069602 0.165000
0.715147 0.198297 0.165000
0.770511 0.360750 0.165000
0.701536 0.482947 0.165000
0.663600 0.580364 0.165000
0.591927 0.625031 0.165000
0.552350 0.668951 0.165000
0.517053 0.701536 0.165000
0.507999 0.761135 0.165000
0.535989 0.845175 0.165000
0.720171 0.897043 0.165000
1.000000 0.936187 0.165000
0.000000 0.029110 0.165000
0.535926 0.078647 0.165000
0.678835 0.185519 0.165000
0.710654 0.341925 0.165000
0.668951 0.447650 0.165000
0.611442 0.526412 0.165000
0.540487 0.564845 0.165000
0.473588 0.611442 0.165000
0.419636 0.663600 0.165000
0.424034 0.756201 0.165000
0.445248 0.846222 0.165000
0.624393 0.905426 0.165000
1.000000 0.951505 0.165000
0.000000 0.036752 0.165000
0.460413 0.086749 0.165000
0.631666 0.162898 0.165000
0.646265 0.292948 0.165000
0.625031 0.408073 0.165000
0.564845 0.459513 0.165000
0.500000 0.500000 0.165000
0.435155 0.540487 0.165000
0.374969 0.591927 0.165000
0.353735 0.707052 0.165000
0.368334 0.837102 0.165000
0.539588 0.913251 0.165000
1.000000 0.963247 0.165000
0.000000 0.048495 0.165000
0.375608 0.094574 0.165000
0.554752 0.153778 0.165000
0.575966 0.243799 0.165000
0.580364 0.336400 0.165000
0.526412 0.388558 0.165000
0.459513 0.435155 0.165000
0.388558 0.473588 0.165000
0.331049 0.552350 0.165000
0.289347 0.658076 0.165000
0.321165 0.814481 0.165000
0.464075 0.921353 0.165000
1.000000 0.970890 0.165000
0.000000 0.063813 0.165000
0.279830 0.102957 0.165000
0.464011 0.154825 0.165000
0.492001 0.238865 0.165000
0.482948 0.298464 0.165000
0.447650 0.331049 0.165000
0.408073 0.374969 0.165000
0.336400 0.419636 0.165000
0.298464 0.517052 0.165000
0.229489 0.639250 0.165000
0.284852 0.801703 0.165000
0.405674 0.930399 0.165000
1.000000 0.976039 0.165000
0.000000 0.082675 0.165000
0.204954 0.130654 0.165000
0.295480 0.158200 0.165000
0.353288 0.183716 0.165000
0.360750 0.229489 0.165000
0.341925 0.289347 0.165000
0.292948 0.353735 0.165000
0.243799 0.424034 0.165000
0.238865 0.507999 0.165000
0.183716 0.646712 0.165000
0.246769 0.811059 0.165000
0.368401 0.943552 0.165000
1.000000 0.980354 0.165000
0.000000 0.109350 0.165000
0.078546 0.140245 0.165000
0.152671 0.194529 0.165000
0.188940 0.246769 0.165000
0.198297 0.284852 0.165000
0.185519 0.321165 0.165000
0.162898 0.368334 0.165000
0.153778 0.445248 0.165000
0.154825 0.535989 0.165000
0.158200 0.704520 0.165000
0.194529 0.847329 0.165000
0.353459 0.959696 0.165000
1.000000 0.984143 0.165000
0.000000 0.441638 0.165000
0.016502 0.408910 0.165000
0.040304 0.353459 0.165000
0.056448 0.368401 0.165000
0.069601 0.405674 0.165000
0.078647 0.464076 0.165000
0.086749 0.539588 0.165000
0.094574 0.624393 0.165000
0.102957 0.720171 0.165000
0.130654 0.795046 0.165000
0.140245 0.921454 0.165000
0.408910 0.983498 0.165000
1.000000 0.992371 0.165000
0.000000 1.000000 0.165000
0.007629 1.000000 0.165000
0.015857 1.000000 0.165000
0.019646 1.000000 0.165000
0.023961 1.000000 0.165000
0.029110 1.000000 0.165000
0.036752 1.000000 0.165000
0.048495 1.000000 0.165000
0.063813 1.000000 0.165000
0.082675 1.000000 0.165000
0.109350 1.000000 0.165000
0.441638 1.000000 0.165000
1.000000 1.000000 0.165000
0.000000 0.000000 0.247500
0.558362 0.000000 0.247500
0.890650 0.000000 0.247500
0.917325 0.000000 0.247500
0.936187 0.000000 0.247500
0.951505 0.000000 0.247500
0.963247 0.000000 0.247500
0.970890 0.000000 0.247500
0.976039 0.000000 0.247500
0.980354 0.000000 0.247500
0.984143 0.000000 0.247500
0.992371 0.000000 0.247500
1.000000 0.000000 0.247500
0.000000 0.007629 0.247500
0.591090 0.016502 0.247500
0.859755 0.078546 0.247500
0.869346 0.204954 0.247500
0.897043 0.279830 0.247500
0.905426 0.375608 0.247500
0.913251 0.460413 0.247500
0.921353 0.535926 0.247500
0.930398 0.594327 0.247500
0.943551 0.631600 0.247500
0.959696 0.646542 0.247500
0.983498 0.591090 0.247500
1.000000 0.558362 0.247500
0.000000 0.015857 0.247500
0.646542 0.040304 0.247500
0.805471 0.152671 0.247500
0.841799 0.295481 0.247500
0.845175 0.464011 0.247500
0.846222 0.554752 0.247500
0.837102 0.631666 0.247500
0.814481 0.678835 0.247500
0.801703 0.715147 0.247500
0.811060 0.753231 0.247500
0.847329 0.805471 0.247500
0.921455 0.859756 0.247500
1.000000 0.890650 0.247500
0.000000 0.019646 0.247500
0.631600 0.056449 0.247500
0.753231 0.188940 0.247500
0.816284 0.353288 0.247500
0.761135 0.492001 0.247500
0.756201 0.575966 0.247500
0.707052 0.646265 0.247500
0.658076 0.710654 0.247500
0.639250 0.770511 0.247500
0.646712 0.816284 0.247500
0.704520 0.841799 0.247500
0.795046 0.869346 0.247500
1.000000 0.917325 0.247500
0.000000 0.023961 0.247500
0.594327 0.069602 0.247500
0.715147 0.198297 0.247500
0.770511 0.360750 0.247500
0.701536 0.482947 0.247500
0.663600 0.580364 0.247500
0.591927 0.625031 0.247500
0.552350 0.668951 0.247500
0.517053 0.701536 0.247500
0.507999 0.761135 0.247500
0.535989 0.845175 0.247500
0.720171 0.897043 0.247500
1.000000 0.936187 0.247500
0.000000 0.029110 0.247500
0.535926 0.078647 0.247500
0.678835 0.185519 0.247500
0.710654 0.341925 0.247500
0.668951 0.447650 0.247500
0.611442 0.526412 0.247500
0.540487 0.564845 0.247500
0.473588 0.611442 0.247500
0.419636 0.663600 0.247500
0.424034 0.756201 0.247500
0.445248 0.846222 0.247500
0.624393 0.905426 0.247500
1.000000 0.951505 0.247500
0.000000 0.036752 0.247500
0.460413 0.086749 0.247500
0.631666 0.162898 0.247500
0.646265 0.292948 0.247500
0.625031 0.408073 0.247500
0.564845 0.459513 0.247500
0.500000 0.500000 0.247500
0.435155 0.540487 0.247500
0.374969 0.591927 0.247500
0.353735 0.707052 0.247500
0.368334 0.837102 0.247500
0.539588 0.913251 0.247500
1.000000 0.963247 0.247500
0.000000 0.048495 0.247500
0.375608 0.094574 0.247500
0.554752 0.153778 0.247500
0.575966 0.243799 0.247500
0.580364 0.336400 0.247500
0.526412 0.388558 0.247500
0.459513 0.435155 0.247500
0.388558 0.473588 0.247500
0.331049 0.552350 0.247500
0.289347 0.658076 0.247500
0.321165 0.814481 0.247500
0.464075 0.921353 0.247500
1.000000 0.970890 0.247500
0.000000 0.063813 0.247500
0.279830 0.102957 0.247500
0.464011 0.154825 0.247500
0.492001 0.238865 0.247500
0.482948 0.298464 0.247500
0.447650 0.331049 0.247500
0.408073 0.374969 0.247500
0.336400 0.419636 0.247500
0.298464 0.517052 0.247500
0.229489 0.639250 0.247500
0.284852 0.801703 0.247500
0.405674 0.930399 0.247500
1.000000 0.976039 0.247500
0.000000 0.082675 0.247500
0.204954 0.130654 0.247500
0.295480 0.158200 0.247500
0.353288 0.183716 0.247500
0.360750 0.229489 0.247500
0.341925 0.289347 0.247500
0.292948 0.353735 0.247500
0.243799 0.424034 0.247500
0.238865 0.507999 0.247500
0.183716 0.646712 0.247500
0.246769 0.811059 0.247500
0.368401 0.943552 0.247500
1.000000 0.980354 0.247500
0.000000 0.109350 0.247500
0.078546 0.140245 0.247500
0.152671 0.194529 0.247500
0.188940 0.246769 0.247500
0.198297 0.284852 0.247500
0.185519 0.321165 0.247500
0.162898 0.368334 0.247500
0.153778 0.445248 0.247500
0.154825 0.535989 0.247500
0.158200 0.704520 0.247500
0.194529 0.847329 0.247500
0.353459 0.959696 0.247500
1.000000 0.984143 0.247500
0.000000 0.441638 0.247500
0.016502 0.408910 0.247500
0.040304 0.353459 0.247500
0.056448 0.368401 0.247500
0.069601 0.405674 0.247500
0.078647 0.464076 0.247500
0.086749 0.539588 0.247500
0.094574 0.624393 0.247500
0.102957 0.720171 0.247500
0.130654 0.795046 0.247500
0.140245 0.921454 0.247500
0.408910 0.983498 0.247500
1.000000 0.992371 0.247500
0.000000 1.000000 0.247500
0.007629 1.000000 0.247500
0.015857 1.000000 0.247500
0.019646 1.000000 0.247500
0.023961 1.000000 0.247500
0.029110 1.000000 0.247500
0.036752 1.000000 0.247500
0.048495 1.000000 0.247500
0.063813 1.000000 0.247500
0.082675 1.000000 0.247500
0.109350 1.000000 0.247500
0.441638 1.000000 0.247500
1.000000 1.000000 0.247500
0.000000 0.000000 0.330000
0.558362 0.000000 0.330000
0.890650 0.000000 0.330000
0.917325 0.000000 0.330000
0.936187 0.000000 0.330000
0.951505 0.000000 0.330000
0.963247 0.000000 0.330000
0.970890 0.000000 0.330000
0.976039 0.000000 0.330000
0.980354 0.000000 0.330000
0.984143 0.000000 0.330000
0.992371 0.000000 0.330000
1.000000 0.000000 0.330000
0.000000 0.007629 0.330000
0.591090 0.016502 0.330000
0.859755 0.078546 0.330000
0.869346 0.204954 0.330000
0.897043 0.279830 0.330000
0.905426 0.375608 0.330000
0.913251 0.460413 0.330000
0.921353 0.535926 0.330000
0.930398 0.594327 0.330000
0.943551 0.631600 0.330000
0.959696 0.646542 0.330000
0.983498 0.591090 0.330000
1.000000 0.558362 0.330000
0.000000 0.015857 0.330000
0.646542 0.040304 0.330000
0.805471 0.152671 0.330000
0.841799 0.295481 0.330000
0.845175 0.464011 0.330000
0.846222 0.554752 0.330000
0.837102 0.631666 0.330000
0.814481 0.678835 0.330000
0.801703 0.715147 0.330000
0.811060 0.753231 0.330000
0.847329 0.805471 0.330000
0.921455 0.859756 0.330000
1.000000 0.890650 0.330000
0.000000 0.019646 0.330000
0.631600 0.056449 0.330000
0.753231 0.188940 0.330000
0.816284 0.353288 0.330000
0.761135 0.492001 0.330000
0.756201 0.575966 0.330000
0.707052 0.646265 0.330000
0.658076 0.710654 0.330000
0.639250 0.770511 0.330000
0.646712 0.816284 0.330000
0.704520 0.841799 0.330000
0.795046 0.869346 0.330000
1.000000 0.917325 0.330000
0.000000 0.023961 0.330000
0.594327 0.069602 0.330000
0.715147 0.198297 0.330000
0.770511 0.360750 0.330000
0.701536 0.482947 0.330000
0.663600 0.580364 0.330000
0.591927 0.625031 0.330000
0.552350 0.668951 0.330000
0.517053 0.701536 0.330000
0.507999 0.761135 0.330000
0.535989 0.845175 0.330000