# vtk DataFile Version 2.0
Mesh for Fierro
ASCII 
DATASET UNSTRUCTURED_GRID

POINTS 845 float
0.000000 0.000000 0.000000
0.385079 0.000000 0.000000
0.612261 0.000000 0.000000
0.725054 0.000000 0.000000
0.797265 0.000000 0.000000
0.845016 0.000000 0.000000
0.879742 0.000000 0.000000
0.907381 0.000000 0.000000
0.930193 0.000000 0.000000
0.949441 0.000000 0.000000
0.966709 0.000000 0.000000
0.983709 0.000000 0.000000
1.000000 0.000000 0.000000
0.000000 0.016291 0.000000
0.379975 0.022411 0.000000
0.603512 0.044987 0.000000
0.714025 0.074251 0.000000
0.782665 0.118563 0.000000
0.827422 0.161324 0.000000
0.861885 0.208977 0.000000
0.888673 0.257689 0.000000
0.911581 0.303286 0.000000
0.933955 0.338127 0.000000
0.955409 0.363041 0.000000
0.977589 0.379976 0.000000
1.000000 0.385079 0.000000
0.000000 0.033291 0.000000
0.363041 0.044591 0.000000
0.580598 0.085295 0.000000
0.689432 0.140020 0.000000
0.751764 0.216084 0.000000
0.793878 0.286786 0.000000
0.819734 0.364031 0.000000
0.840462 0.433094 0.000000
0.858293 0.496436 0.000000
0.883460 0.544258 0.000000
0.914705 0.580598 0.000000
0.955013 0.603512 0.000000
1.000000 0.612261 0.000000
0.000000 0.050559 0.000000
0.338127 0.066045 0.000000
0.544258 0.116540 0.000000
0.647427 0.189291 0.000000
0.700104 0.279589 0.000000
0.733897 0.364071 0.000000
0.745784 0.450186 0.000000
0.760179 0.524696 0.000000
0.774740 0.593209 0.000000
0.810709 0.647427 0.000000
0.859980 0.689432 0.000000
0.925750 0.714025 0.000000
1.000000 0.725054 0.000000
0.000000 0.069807 0.000000
0.303286 0.088419 0.000000
0.496436 0.141707 0.000000
0.593209 0.225260 0.000000
0.640010 0.322796 0.000000
0.660405 0.414027 0.000000
0.659516 0.499792 0.000000
0.667558 0.573888 0.000000
0.677204 0.640010 0.000000
0.720411 0.700104 0.000000
0.783916 0.751764 0.000000
0.881438 0.782665 0.000000
1.000000 0.797265 0.000000
0.000000 0.092619 0.000000
0.257689 0.111327 0.000000
0.433094 0.159538 0.000000
0.524696 0.239821 0.000000
0.573888 0.332442 0.000000
0.585530 0.420921 0.000000
0.579659 0.505022 0.000000
0.579079 0.585530 0.000000
0.585973 0.660405 0.000000
0.635929 0.733897 0.000000
0.713214 0.793877 0.000000
0.838677 0.827422 0.000000
1.000000 0.845016 0.000000
0.000000 0.120258 0.000000
0.208977 0.138115 0.000000
0.364031 0.180266 0.000000
0.450186 0.254216 0.000000
0.499792 0.340484 0.000000
0.505022 0.420341 0.000000
0.500000 0.500000 0.000000
0.494978 0.579659 0.000000
0.500208 0.659516 0.000000
0.549814 0.745784 0.000000
0.635969 0.819734 0.000000
0.791023 0.861885 0.000000
1.000000 0.879742 0.000000
0.000000 0.154984 0.000000
0.161324 0.172578 0.000000
0.286786 0.206122 0.000000
0.364071 0.266103 0.000000
0.414027 0.339595 0.000000
0.420921 0.414470 0.000000
0.420341 0.494978 0.000000
0.414470 0.579079 0.000000
0.426112 0.667558 0.000000
0.475304 0.760179 0.000000
0.566906 0.840462 0.000000
0.742312 0.888673 0.000000
1.000000 0.907381 0.000000
0.000000 0.202735 0.000000
0.118563 0.217335 0.000000
0.216084 0.248236 0.000000
0.279589 0.299896 0.000000
0.322796 0.359990 0.000000
0.332442 0.426112 0.000000
0.340484 0.500208 0.000000
0.339595 0.585973 0.000000
0.359990 0.677204 0.000000
0.406791 0.774740 0.000000
0.503564 0.858293 0.000000
0.696714 0.911581 0.000000
1.000000 0.930193 0.000000
0.000000 0.274946 0.000000
0.074251 0.285975 0.000000
0.140020 0.310568 0.000000
0.189291 0.352573 0.000000
0.225260 0.406791 0.000000
0.239821 0.475304 0.000000
0.254216 0.549814 0.000000
0.266103 0.635929 0.000000
0.299896 0.720411 0.000000
0.352573 0.810709 0.000000
0.455742 0.883460 0.000000
0.661874 0.933955 0.000000
1.000000 0.949441 0.000000
0.000000 0.387739 0.000000
0.044987 0.396489 0.000000
0.085295 0.419402 0.000000
0.116540 0.455742 0.000000
0.141707 0.503564 0.000000
0.159538 0.566906 0.000000
0.180266 0.635969 0.000000
0.206122 0.713214 0.000000
0.248236 0.783916 0.000000
0.310568 0.859980 0.000000
0.419402 0.914705 0.000000
0.636960 0.955409 0.000000
1.000000 0.966709 0.000000
0.000000 0.614922 0.000000
0.022411 0.620025 0.000000
0.044591 0.636960 0.000000
0.066045 0.661874 0.000000
0.088419 0.696714 0.000000
0.111327 0.742312 0.000000
0.138115 0.791023 0.000000
0.172578 0.838677 0.000000
0.217335 0.881438 0.000000
0.285975 0.925750 0.000000
0.396489 0.955013 0.000000
0.620025 0.977589 0.000000
1.000000 0.983710 0.000000
0.000000 1.000000 0.000000
0.016291 1.000000 0.000000
0.033291 1.000000 0.000000
0.050559 1.000000 0.000000
0.069807 1.000000 0.000000
0.092619 1.000000 0.000000
0.120258 1.000000 0.000000
0.154984 1.000000 0.000000
0.202735 1.000000 0.000000
0.274946 1.000000 0.000000
0.387739 1.000000 0.000000
0.614922 1.000000 0.000000
1.000000 1.000000 0.000000
0.000000 0.000000 0.082500
0.385079 0.000000 0.082500
0.612261 0.000000 0.082500
0.725054 0.000000 0.082500
0.797265 0.000000 0.082500
0.845016 0.000000 0.082500
0.879742 0.000000 0.082500
0.907381 0.000000 0.082500
0.930193 0.000000 0.082500
0.949441 0.000000 0.082500
0.966709 0.000000 0.082500
0.983709 0.000000 0.082500
1.000000 0.000000 0.082500
0.000000 0.016291 0.082500
0.379975 0.022411 0.082500
0.603512 0.044987 0.082500
0.714025 0.074251 0.082500
0.782665 0.118563 0.082500
0.827422 0.161324 0.082500
0.861885 0.208977 0.082500
0.888673 0.257689 0.082500
0.911581 0.303286 0.082500
0.933955 0.338127 0.082500
0.955409 0.363041 0.082500
0.977589 0.379976 0.082500
1.000000 0.385079 0.082500
0.000000 0.033291 0.082500
0.363041 0.044591 0.082500
0.580598 0.085295 0.082500
0.689432 0.140020 0.082500
0.751764 0.216084 0.082500
0.793878 0.286786 0.082500
0.819734 0.364031 0.082500
0.840462 0.433094 0.082500
0.858293 0.496436 0.082500
0.883460 0.544258 0.082500
0.914705 0.580598 0.082500
0.955013 0.603512 0.082500
1.000000 0.612261 0.082500
0.000000 0.050559 0.082500
0.338127 0.066045 0.082500
0.544258 0.116540 0.082500
0.647427 0.189291 0.082500
0.700104 0.279589 0.082500
0.733897 0.364071 0.082500
0.745784 0.450186 0.082500
0.760179 0.524696 0.082500
0.774740 0.593209 0.082500
0.810709 0.647427 0.082500
0.859980 0.689432 0.082500
0.925750 0.714025 0.082500
1.000000 0.725054 0.082500
0.000000 0.069807 0.082500
0.303286 0.088419 0.082500
0.496436 0.141707 0.082500
0.593209 0.225260 0.082500
0.640010 0.322796 0.082500
0.660405 0.414027 0.082500
0.659516 0.499792 0.082500
0.667558 0.573888 0.082500
0.677204 0.640010 0.082500
0.720411 0.700104 0.082500
0.783916 0.751764 0.082500
0.881438 0.782665 0.082500
1.000000 0.797265 0.082500
0.000000 0.092619 0.082500
0.257689 0.111327 0.082500
0.433094 0.159538 0.082500
0.524696 0.239821 0.082500
0.573888 0.332442 0.082500
0.585530 0.420921 0.082500
0.579659 0.505022 0.082500
0.579079 0.585530 0.082500
0.585973 0.660405 0.082500
0.635929 0.733897 0.082500
0.713214 0.793877 0.082500
0.838677 0.827422 0.082500
1.000000 0.845016 0.082500
0.000000 0.120258 0.082500
0.208977 0.138115 0.082500
0.364031 0.180266 0.082500
0.450186 0.254216 0.082500
0.499792 0.340484 0.082500
0.505022 0.420341 0.082500
0.500000 0.500000 0.082500
0.494978 0.579659 0.082500
0.500208 0.659516 0.082500
0.549814 0.745784 0.082500
0.635969 0.819734 0.082500
0.791023 0.861885 0.082500
1.000000 0.879742 0.082500
0.000000 0.154984 0.082500
0.161324 0.172578 0.082500
0.286786 0.206122 0.082500
0.364071 0.266103 0.082500
0.414027 0.339595 0.082500
0.420921 0.414470 0.082500
0.420341 0.494978 0.082500
0.414470 0.579079 0.082500
0.426112 0.667558 0.082500
0.475304 0.760179 0.082500
0.566906 0.840462 0.082500
0.742312 0.888673 0.082500
1.000000 0.907381 0.082500
0.000000 0.202735 0.082500
0.118563 0.217335 0.082500
0.216084 0.248236 0.082500
0.279589 0.299896 0.082500
0.322796 0.359990 0.082500
0.332442 0.426112 0.082500
0.340484 0.500208 0.082500
0.339595 0.585973 0.082500
0.359990 0.677204 0.082500
0.406791 0.774740 0.082500
0.503564 0.858293 0.082500
0.696714 0.911581 0.082500
1.000000 0.930193 0.082500
0.000000 0.274946 0.082500
0.074251 0.285975 0.082500
0.140020 0.310568 0.082500
0.189291 0.352573 0.082500
0.225260 0.406791 0.082500
0.239821 0.475304 0.082500
0.254216 0.549814 0.082500
0.266103 0.635929 0.082500
0.299896 0.720411 0.082500
0.352573 0.810709 0.082500
0.455742 0.883460 0.082500
0.661874 0.933955 0.082500
1.000000 0.949441 0.082500
0.000000 0.387739 0.082500
0.044987 0.396489 0.082500
0.085295 0.419402 0.082500
0.116540 0.455742 0.082500
0.141707 0.503564 0.082500
0.159538 0.566906 0.082500
0.180266 0.635969 0.082500
0.206122 0.713214 0.082500
0.248236 0.783916 0.082500
0.310568 0.859980 0.082500
0.419402 0.914705 0.082500
0.636960 0.955409 0.082500
1.000000 0.966709 0.082500
0.000000 0.614922 0.082500
0.022411 0.620025 0.082500
0.044591 0.636960 0.082500
0.066045 0.661874 0.082500
0.088419 0.696714 0.082500
0.111327 0.742312 0.082500
0.138115 0.791023 0.082500
0.172578 0.838677 0.082500
0.217335 0.881438 0.082500
0.285975 0.925750 0.082500
0.396489 0.955013 0.082500
0.620025 0.977589 0.082500
1.000000 0.983710 0.082500
0.000000 1.000000 0.082500
0.016291 1.000000 0.082500
0.033291 1.000000 0.082500
0.050559 1.000000 0.082500
0.069807 1.000000 0.082500
0.092619 1.000000 0.082500
0.120258 1.000000 0.082500
0.154984 1.000000 0.082500
0.202735 1.000000 0.082500
0.274946 1.000000 0.082500
0.387739 1.000000 0.082500
0.614922 1.000000 0.082500
1.000000 1.000000 0.082500
0.000000 0.000000 0.165000
0.385079 0.000000 0.165000
0.612261 0.000000 0.165000
0.725054 0.000000 0.165000
0.797265 0.000000 0.165000
0.845016 0.000000 0.165000
0.879742 0.000000 0.165000
0.907381 0.000000 0.165000
0.930193 0.000000 0.165000
0.949441 0.000000 0.165000
0.966709 0.000000 0.165000
0.983709 0.000000 0.165000
1.000000 0.000000 0.165000
0.000000 0.016291 0.165000
0.379975 0.022411 0.165000
0.603512 0.044987 0.165000
0.714025 0.074251 0.165000
0.782665 0.118563 0.165000
0.827422 0.161324 0.165000
0.861885 0.208977 0.165000
0.888673 0.257689 0.165000
0.911581 0.303286 0.165000
0.933955 0.338127 0.165000
0.955409 0.363041 0.165000
0.977589 0.379976 0.165000
1.000000 0.385079 0.165000
0.000000 0.033291 0.165000
0.363041 0.044591 0.165000
[...]
POINT_DATA 845 
VECTORS pos float 
0.000000 0.000000 0.000000
0.385079 0.000000 0.000000
0.612261 0.000000 0.000000
0.725054 0.000000 0.000000
0.797265 0.000000 0.000000
0.845016 0.000000 0.000000
0.879742 0.000000 0.000000
0.907381 0.000000 0.000000
0.930193 0.000000 0.000000
0.949441 0.000000 0.000000
0.966709 0.000000 0.000000
0.983709 0.000000 0.000000
1.000000 0.000000 0.000000
0.000000 0.016291 0.000000
0.379975 0.022411 0.000000
0.603512 0.044987 0.000000
0.714025 0.074251 0.000000
0.782665 0.118563 0.000000
0.827422 0.161324 0.000000
0.861885 0.208977 0.000000
0.888673 0.257689 0.000000
0.911581 0.303286 0.000000
0.933955 0.338127 0.000000
0.955409 0.363041 0.000000
0.977589 0.379976 0.000000
1.000000 0.385079 0.000000
0.000000 0.033291 0.000000
0.363041 0.044591 0.000000
0.580598 0.085295 0.000000
0.689432 0.140020 0.000000
0.751764 0.216084 0.000000
0.793878 0.286786 0.000000
0.819734 0.364031 0.000000
0.840462 0.433094 0.000000
0.858293 0.496436 0.000000
0.883460 0.544258 0.000000
0.914705 0.580598 0.000000
0.955013 0.603512 0.000000
1.000000 0.612261 0.000000
0.000000 0.050559 0.000000
0.338127 0.066045 0.000000
0.544258 0.116540 0.000000
0.647427 0.189291 0.000000
0.700104 0.279589 0.000000
0.733897 0.364071 0.000000
0.745784 0.450186 0.000000
0.760179 0.524696 0.000000
0.774740 0.593209 0.000000
0.810709 0.647427 0.000000
0.859980 0.689432 0.000000
0.925750 0.714025 0.000000
1.000000 0.725054 0.000000
0.000000 0.069807 0.000000
0.303286 0.088419 0.000000
0.496436 0.141707 0.000000
0.593209 0.225260 0.000000
0.640010 0.322796 0.000000
0.660405 0.414027 0.000000
0.659516 0.499792 0.000000
0.667558 0.573888 0.000000
0.677204 0.640010 0.000000
0.720411 0.700104 0.000000
0.783916 0.751764 0.000000
0.881438 0.782665 0.000000
1.000000 0.797265 0.000000
0.000000 0.092619 0.000000
0.257689 0.111327 0.000000
0.433094 0.159538 0.000000
0.524696 0.239821 0.000000
0.573888 0.332442 0.000000
0.585530 0.420921 0.000000
0.579659 0.505022 0.000000
0.579079 0.585530 0.000000
0.585973 0.660405 0.000000
0.635929 0.733897 0.000000
0.713214 0.793877 0.000000
0.838677 0.827422 0.000000
1.000000 0.845016 0.000000
0.000000 0.120258 0.000000
0.208977 0.138115 0.000000
0.364031 0.180266 0.000000
0.450186 0.254216 0.000000
0.499792 0.340484 0.000000
0.505022 0.420341 0.000000
0.500000 0.500000 0.000000
0.494978 0.579659 0.000000
0.500208 0.659516 0.000000
0.549814 0.745784 0.000000
0.635969 0.819734 0.000000
0.791023 0.861885 0.000000
1.000000 0.879742 0.000000
0.000000 0.154984 0.000000
0.161324 0.172578 0.000000
0.286786 0.206122 0.000000
0.364071 0.266103 0.000000
0.414027 0.339595 0.000000
0.420921 0.414470 0.000000
0.420341 0.494978 0.000000
0.414470 0.579079 0.000000
0.426112 0.667558 0.000000
0.475304 0.760179 0.000000
0.566906 0.840462 0.000000
0.742312 0.888673 0.000000
1.000000 0.907381 0.000000
0.000000 0.202735 0.000000
0.118563 0.217335 0.000000
0.216084 0.248236 0.000000
0.279589 0.299896 0.000000
0.322796 0.359990 0.000000
0.332442 0.426112 0.000000
0.340484 0.500208 0.000000
0.339595 0.585973 0.000000
0.359990 0.677204 0.000000
0.406791 0.774740 0.000000
0.503564 0.858293 0.000000
0.696714 0.911581 0.000000
1.000000 0.930193 0.000000
0.000000 0.274946 0.000000
0.074251 0.285975 0.000000
0.140020 0.310568 0.000000
0.189291 0.352573 0.000000
0.225260 0.406791 0.000000
0.239821 0.475304 0.000000
0.254216 0.549814 0.000000
0.266103 0.635929 0.000000
0.299896 0.720411 0.000000
0.352573 0.810709 0.000000
0.455742 0.883460 0.000000
0.661874 0.933955 0.000000
1.000000 0.949441 0.000000
0.000000 0.387739 0.000000
0.044987 0.396489 0.000000
0.085295 0.419402 0.000000
0.116540 0.455742 0.000000
0.141707 0.503564 0.000000
0.159538 0.566906 0.000000
0.180266 0.635969 0.000000
0.206122 0.713214 0.000000
0.248236 0.783916 0.000000
0.310568 0.859980 0.000000
0.419402 0.914705 0.000000
0.636960 0.955409 0.000000
1.000000 0.966709 0.000000
0.000000 0.614922 0.000000
0.022411 0.620025 0.000000
0.044591 0.636960 0.000000
0.066045 0.661874 0.000000
0.088419 0.696714 0.000000
0.111327 0.742312 0.000000
0.138115 0.791023 0.000000
0.172578 0.838677 0.000000
0.217335 0.881438 0.000000
0.285975 0.925750 0.000000
0.396489 0.955013 0.000000
0.620025 0.977589 0.000000
1.000000 0.983710 0.000000
0.000000 1.000000 0.000000
0.016291 1.000000 0.000000
0.033291 1.000000 0.000000
0.050559 1.000000 0.000000
0.069807 1.000000 0.000000
0.092619 1.000000 0.000000
0.120258 1.000000 0.000000
0.154984 1.000000 0.000000
0.202735 1.000000 0.000000
0.274946 1.000000 0.000000
0.387739 1.000000 0.000000
0.614922 1.000000 0.000000
1.000000 1.000000 0.000000
0.000000 0.000000 0.082500
0.385079 0.000000 0.082500
0.612261 0.000000 0.082500
0.725054 0.000000 0.082500
0.797265 0.000000 0.082500
0.845016 0.000000 0.082500
0.879742 0.000000 0.082500
0.907381 0.000000 0.082500
0.930193 0.000000 0.082500
0.949441 0.000000 0.082500
0.966709 0.000000 0.082500
0.983709 0.000000 0.082500
1.000000 0.000000 0.082500
0.000000 0.016291 0.082500
0.379975 0.022411 0.082500
0.603512 0.044987 0.082500
0.714025 0.074251 0.082500
0.782665 0.118563 0.082500
0.827422 0.161324 0.082500
0.861885 0.208977 0.082500
0.888673 0.257689 0.082500
0.911581 0.303286 0.082500
0.933955 0.338127 0.082500
0.955409 0.363041 0.082500
0.977589 0.379976 0.082500
1.000000 0.385079 0.082500
0.000000 0.033291 0.082500
0.363041 0.044591 0.082500
0.580598 0.085295 0.082500
0.689432 0.140020 0.082500
0.751764 0.216084 0.082500
0.793878 0.286786 0.082500
0.819734 0.364031 0.082500
0.840462 0.433094 0.082500
0.858293 0.496436 0.082500
0.883460 0.544258 0.082500
0.914705 0.580598 0.082500
0.955013 0.603512 0.082500
1.000000 0.612261 0.082500
0.000000 0.050559 0.082500
0.338127 0.066045 0.082500
0.544258 0.116540 0.082500
0.647427 0.189291 0.082500
0.700104 0.279589 0.082500
0.733897 0.364071 0.082500
0.745784 0.450186 0.082500
0.760179 0.524696 0.082500
0.774740 0.593209 0.082500
0.810709 0.647427 0.082500
0.859980 0.689432 0.082500
0.925750 0.714025 0.082500
1.000000 0.725054 0.082500
0.000000 0.069807 0.082500
0.303286 0.088419 0.082500
0.496436 0.141707 0.082500
0.593209 0.225260 0.082500
0.640010 0.322796 0.082500
0.660405 0.414027 0.082500
0.659516 0.499792 0.082500
0.667558 0.573888 0.082500
0.677204 0.640010 0.082500
0.720411 0.700104 0.082500
0.783916 0.751764 0.082500
0.881438 0.782665 0.082500
1.000000 0.797265 0.082500
0.000000 0.092619 0.082500
0.257689 0.111327 0.082500
0.433094 0.159538 0.082500
0.524696 0.239821 0.082500
0.573888 0.332442 0.082500
0.585530 0.420921 0.082500
0.579659 0.505022 0.082500
0.579079 0.585530 0.082500
0.585973 0.660405 0.082500
0.635929 0.733897 0.082500
0.713214 0.793877 0.082500
0.838677 0.827422 0.082500
1.000000 0.845016 0.082500
0.000000 0.120258 0.082500
0.208977 0.138115 0.082500
0.364031 0.180266 0.082500
0.450186 0.254216 0.082500
0.499792 0.340484 0.082500
0.505022 0.420341 0.082500
0.500000 0.500000 0.082500
0.494978 0.579659 0.082500
0.500208 0.659516 0.082500
0.549814 0.745784 0.082500
0.635969 0.819734 0.082500
0.791023 0.861885 0.082500
1.000000 0.879742 0.082500
0.000000 0.154984 0.082500
0.161324 0.172578 0.082500
0.286786 0.206122 0.082500
0.364071 0.266103 0.082500
0.414027 0.339595 0.082500
0.420921 0.414470 0.082500
0.420341 0.494978 0.082500
0.414470 0.579079 0.082500
0.426112 0.667558 0.082500
0.475304 0.760179 0.082500
0.566906 0.840462 0.082500
0.742312 0.888673 0.082500
1.000000 0.907381 0.082500
0.000000 0.202735 0.082500
0.118563 0.217335 0.082500
0.216084 0.248236 0.082500
0.279589 0.299896 0.082500
0.322796 0.359990 0.082500
0.332442 0.426112 0.082500
0.340484 0.500208 0.082500
0.339595 0.585973 0.082500
0.359990 0.677204 0.082500
0.406791 0.774740 0.082500
0.503564 0.858293 0.082500
0.696714 0.911581 0.082500
1.000000 0.930193 0.082500
0.000000 0.274946 0.082500
0.074251 0.285975 0.082500
0.140020 0.310568 0.082500
0.189291 0.352573 0.082500
0.225260 0.406791 0.082500
0.239821 0.475304 0.082500
0.254216 0.549814 0.082500
0.266103 0.635929 0.082500
0.299896 0.720411 0.082500
0.352573 0.810709 0.082500
0.455742 0.883460 0.082500
0.661874 0.933955 0.082500
1.000000 0.949441 0.082500
0.000000 0.387739 0.082500
0.044987 0.396489 0.082500
0.085295 0.419402 0.082500
0.116540 0.455742 0.082500
0.141707 0.503564 0.082500
0.159538 0.566906 0.082500
0.180266 0.635969 0.082500
0.206122 0.713214 0.082500
0.248236 0.783916 0.082500
0.310568 0.859980 0.082500
0.419402 0.914705 0.082500
0.636960 0.955409 0.082500
1.000000 0.966709 0.082500
0.000000 0.614922 0.082500
0.022411 0.620025 0.082500
0.044591 0.636960 0.082500
0.066045 0.661874 0.082500
0.088419 0.696714 0.082500
0.111327 0.742312 0.082500
0.138115 0.791023 0.082500
0.172578 0.838677 0.082500
0.217335 0.881438 0.082500
0.285975 0.925750 0.082500
0.396489 0.955013 0.082500
0.620025 0.977589 0.082500
1.000000 0.983710 0.082500
0.000000 1.000000 0.082500
0.016291 1.000000 0.082500
0.033291 1.000000 0.082500
0.050559 1.000000 0.082500
0.069807 1.000000 0.082500
0.092619 1.000000 0.082500
0.120258 1.000000 0.082500
0.154984 1.000000 0.082500
0.202735 1.000000 0.082500
0.274946 1.000000 0.082500
0.387739 1.000000 0.082500
0.614922 1.000000 0.082500
1.000000 1.000000 0.082500
0.000000 0.000000 0.165000
0.385079 0.000000 0.165000
0.612261 0.000000 0.165000
0.725054 0.000000 0.165000
0.797265 0.000000 0.165000
0.845016 0.000000 0.165000
0.879742 0.000000 0.165000
0.907381 0.000000 0.165000
0.930193 0.000000 0.165000
0.949441 0.000000 0.165000
0.966709 0.000000 0.165000
0.983709 0.000000 0.165000
1.000000 0.000000 0.165000
0.000000 0.016291 0.165000
0.379975 0.022411 0.165000
0.603512 0.044987 0.165000
0.714025 0.074251 0.165000
0.782665 0.118563 0.165000
0.827422 0.161324 0.165000
0.861885 0.208977 0.165000
0.888673 0.257689 0.165000
0.911581 0.303286 0.165000
0.933955 0.338127 0.165000
0.955409 0.363041 0.165000
0.977589 0.379976 0.165000
1.000000 0.385079 0.165000
0.000000 0.033291 0.165000
0.363041 0.044591 0.165000
0.580598 0.085295 0.165000
0.689432 0.140020 0.165000
0.751764 0.216084 0.165000
0.793878 0.286786 0.165000
0.819734 0.364031 0.165000
0.840462 0.433094 0.165000
0.858293 0.496436 0.165000
0.883460 0.544258 0.165000
0.914705 0.580598 0.165000
0.955013 0.603512 0.165000
1.000000 0.612261 0.165000
0.000000 0.050559 0.165000
0.338127 0.066045 0.165000
0.544258 0.116540 0.165000
0.647427 0.189291 0.165000
0.700104 0.279589 0.165000
0.733897 0.364071 0.165000
0.745784 0.450186 0.165000
0.760179 0.524696 0.165000
0.774740 0.593209 0.165000
0.810709 0.647427 0.165000
0.859980 0.689432 0.165000
0.925750 0.714025 0.165000
1.000000 0.725054 0.165000
0.000000 0.069807 0.165000
0.303286 0.088419 0.165000
0.496436 0.141707 0.165000
0.593209 0.225260 0.165000
0.640010 0.322796 0.165000
0.660405 0.414027 0.165000
0.659516 0.499792 0.165000
0.667558 0.573888 0.165000
0.677204 0.640010 0.165000
0.720411 0.700104 0.165000
0.783916 0.751764 0.165000
0.881438 0.782665 0.165000
1.000000 0.797265 0.165000
0.000000 0.092619 0.165000
0.257689 0.111327 0.165000
0.433094 0.159538 0.165000
0.524696 0.239821 0.165000
0.573888 0.332442 0.165000
0.585530 0.420921 0.165000
0.579659 0.505022 0.165000
0.579079 0.585530 0.165000
0.585973 0.660405 0.165000
0.635929 0.733897 0.165000
0.713214 0.793877 0.165000
0.838677 0.827422 0.165000
1.000000 0.845016 0.165000
0.000000 0.120258 0.165000
0.208977 0.138115 0.165000
0.364031 0.180266 0.165000
0.450186 0.254216 0.165000
0.499792 0.340484 0.165000
0.505022 0.420341 0.165000
0.500000 0.500000 0.165000
0.494978 0.579659 0.165000
0.500208 0.659516 0.165000
0.549814 0.745784 0.165000
0.635969 0.819734 0.165000
0.791023 0.861885 0.165000
1.000000 0.879742 0.165000
0.000000 0.154984 0.165000
0.161324 0.172578 0.165000
0.286786 0.206122 0.165000
0.364071 0.266103 0.165000
0.414027 0.339595 0.165000
0.420921 0.414470 0.165000
0.420341 0.494978 0.165000
0.414470 0.579079 0.165000
0.426112 0.667558 0.165000
0.475304 0.760179 0.165000
0.566906 0.840462 0.165000
0.742312 0.888673 0.165000
1.000000 0.907381 0.165000
0.000000 0.202735 0.165000
0.118563 0.217335 0.165000
0.216084 0.248236 0.165000
0.279589 0.299896 0.165000
0.322796 0.359990 0.165000
0.332442 0.426112 0.165000
0.340484 0.500208 0.165000
0.339595 0.585973 0.165000
0.359990 0.677204 0.165000
0.406791 0.774740 0.165000
0.503564 0.858293 0.165000
0.696714 0.911581 0.165000
1.000000 0.930193 0.165000
0.000000 0.274946 0.165000
0.074251 0.285975 0.165000
0.140020 0.310568 0.165000
0.189291 0.352573 0.165000
0.225260 0.406791 0.165000
0.239821 0.475304 0.165000
0.254216 0.549814 0.165000
0.266103 0.635929 0.165000
0.299896 0.720411 0.165000
0.352573 0.810709 0.165000
0.455742 0.883460 0.165000
0.661874 0.933955 0.165000
1.000000 0.949441 0.165000
0.000000 0.387739 0.165000
0.044987 0.396489 0.165000
0.085295 0.419402 0.165000
0.116540 0.455742 0.165000
0.141707 0.503564 0.165000
0.159538 0.566906 0.165000
0.180266 0.635969 0.165000
0.206122 0.713214 0.165000
0.248236 0.783916 0.165000
0.310568 0.859980 0.165000
0.419402 0.914705 0.165000
0.636960 0.955409 0.165000
1.000000 0.966709 0.165000
0.000000 0.614922 0.165000
0.022411 0.620025 0.165000
0.044591 0.636960 0.165000
0.066045 0.661874 0.165000
0.088419 0.696714 0.165000
0.111327 0.742312 0.165000
0.138115 0.791023 0.165000
0.172578 0.838677 0.165000
0.217335 0.881438 0.165000
0.285975 0.925750 0.165000
0.396489 0.955013 0.165000
0.620025 0.977589 0.165000
1.000000 0.983710 0.165000
0.000000 1.000000 0.165000
0.016291 1.000000 0.165000
0.033291 1.000000 0.165000
0.050559 1.000000 0.165000
0.069807 1.000000 0.165000
0.092619 1.000000 0.165000
0.120258 1.000000 0.165000
0.154984 1.000000 0.165000
0.202735 1.000000 0.165000
0.274946 1.000000 0.165000
0.387739 1.000000 0.165000
0.614922 1.000000 0.165000
1.000000 1.000000 0.165000
0.000000 0.000000 0.247500
0.385079 0.000000 0.247500
0.612261 0.000000 0.247500
0.725054 0.000000 0.247500
0.797265 0.000000 0.247500
0.845016 0.000000 0.247500
0.879742 0.000000 0.247500
0.907381 0.000000 0.247500
0.930193 0.000000 0.247500
0.949441 0.000000 0.247500
0.966709 0.000000 0.247500
0.983709 0.000000 0.247500
1.000000 0.000000 0.247500
0.000000 0.016291 0.247500
0.379975 0.022411 0.247500
0.603512 0.044987 0.247500
0.714025 0.074251 0.247500
0.782665 0.118563 0.247500
0.827422 0.161324 0.247500
0.861885 0.208977 0.247500
0.888673 0.257689 0.247500
0.911581 0.303286 0.247500
0.933955 0.338127 0.247500
0.955409 0.363041 0.247500
0.977589 0.379976 0.247500
1.000000 0.385079 0.247500
0.000000 0.033291 0.247500
0.363041 0.044591 0.247500
0.580598 0.085295 0.247500
0.689432 0.140020 0.247500
0.751764 0.216084 0.247500
0.793878 0.286786 0.247500
0.819734 0.364031 0.247500
0.840462 0.433094 0.247500
0.858293 0.496436 0.247500
0.883460 0.544258 0.247500
0.914705 0.580598 0.247500
0.955013 0.603512 0.247500
1.000000 0.612261 0.247500
0.000000 0.050559 0.247500
0.338127 0.066045 0.247500
0.544258 0.116540 0.247500
0.647427 0.189291 0.247500
0.700104 0.279589 0.247500
0.733897 0.364071 0.247500
0.745784 0.450186 0.247500
0.760179 0.524696 0.247500
0.774740 0.593209 0.247500
0.810709 0.647427 0.247500
0.859980 0.689432 0.247500
0.925750 0.714025 0.247500
1.000000 0.725054 0.247500
0.000000 0.069807 0.247500
0.303286 0.088419 0.247500
0.496436 0.141707 0.247500
0.593209 0.225260 0.247500
0.640010 0.322796 0.247500
0.660405 0.414027 0.247500
0.659516 0.499792 0.247500
0.667558 0.573888 0.247500
0.677204 0.640010 0.247500
0.720411 0.700104 0.247500
0.783916 0.751764 0.247500
0.881438 0.782665 0.247500
1.000000 0.797265 0.247500
0.000000 0.092619 0.247500
0.257689 0.111327 0.247500
0.433094 0.159538 0.247500
0.524696 0.239821 0.247500
0.573888 0.332442 0.247500
0.585530 0.420921 0.247500
0.579659 0.505022 0.247500
0.579079 0.585530 0.247500
0.585973 0.660405 0.247500
0.635929 0.733897 0.247500
0.713214 0.793877 0.247500
0.838677 0.827422 0.247500
1.000000 0.845016 0.247500
0.000000 0.120258 0.247500
0.208977 0.138115 0.247500
0.364031 0.180266 0.247500
0.450186 0.254216 0.247500
0.499792 0.340484 0.247500
0.505022 0.420341 0.247500
0.500000 0.500000 0.247500
0.494978 0.579659 0.247500
0.500208 0.659516 0.247500
0.549814 0.745784 0.247500
0.635969 0.819734 0.247500
0.791023 0.861885 0.247500
1.000000 0.879742 0.247500
0.000000 0.154984 0.247500
0.161324 0.172578 0.247500
0.286786 0.206122 0.247500
0.364071 0.266103 0.247500
0.414027 0.339595 0.247500
0.420921 0.414470 0.247500
0.420341 0.494978 0.247500
0.414470 0.579079 0.247500
0.426112 0.667558 0.247500
0.475304 0.760179 0.247500
0.566906 0.840462 0.247500
0.742312 0.888673 0.247500
1.000000 0.907381 0.247500
0.000000 0.202735 0.247500
0.118563 0.217335 0.247500
0.216084 0.248236 0.247500
0.279589 0.299896 0.247500
0.322796 0.359990 0.247500
0.332442 0.426112 0.247500
0.340484 0.500208 0.247500
0.339595 0.585973 0.247500
0.359990 0.677204 0.247500
0.406791 0.774740 0.247500
0.503564 0.858293 0.247500
0.696714 0.911581 0.247500
1.000000 0.930193 0.247500
0.000000 0.274946 0.247500
0.074251 0.285975 0.247500
0.140020 0.310568 0.247500
0.189291 0.352573 0.247500
0.225260 0.406791 0.247500
0.239821 0.475304 0.247500
0.254216 0.549814 0.247500
0.266103 0.635929 0.247500
0.299896 0.720411 0.247500
0.352573 0.810709 0.247500
0.455742 0.883460 0.247500
0.661874 0.933955 0.247500
1.000000 0.949441 0.247500
0.000000 0.387739 0.247500
0.044987 0.396489 0.247500
0.085295 0.419402 0.247500
0.116540 0.455742 0.247500
0.141707 0.503564 0.247500
0.159538 0.566906 0.247500
0.180266 0.635969 0.247500
0.206122 0.713214 0.247500
0.248236 0.783916 0.247500
0.310568 0.859980 0.247500
0.419402 0.914705 0.247500
0.636960 0.955409 0.247500
1.000000 0.966709 0.247500
0.000000 0.614922 0.247500
0.022411 0.620025 0.247500
0.044591 0.636960 0.247500
0.066045 0.661874 0.247500
0.088419 0.696714 0.247500
0.111327 0.742312 0.247500
0.138115 0.791023 0.247500
0.172578 0.838677 0.247500
0.217335 0.881438 0.247500
0.285975 0.925750 0.247500
0.396489 0.955013 0.247500
0.620025 0.977589 0.247500
1.000000 0.983710 0.247500
0.000000 1.000000 0.247500
0.016291 1.000000 0.247500
0.033291 1.000000 0.247500
0.050559 1.000000 0.247500
0.069807 1.000000 0.247500
0.092619 1.000000 0.247500
0.120258 1.000000 0.247500
0.154984 1.000000 0.247500
0.202735 1.000000 0.247500
0.274946 1.000000 0.247500
0.387739 1.000000 0.247500
0.614922 1.000000 0.247500
1.000000 1.000000 0.247500
0.000000 0.000000 0.330000
0.385079 0.000000 0.330000
0.612261 0.000000 0.330000
0.725054 0.000000 0.330000
0.797265 0.000000 0.330000
0.845016 0.000000 0.330000
0.879742 0.000000 0.330000
0.907381 0.000000 0.330000
0.930193 0.000000 0.330000
0.949441 0.000000 0.330000
0.966709 0.000000 0.330000
0.983709 0.000000 0.330000
1.000000 0.000000 0.330000
0.000000 0.016291 0.330000
0.379975 0.022411 0.330000
0.603512 0.044987 0.330000
0.714025 0.074251 0.330000
0.782665 0.118563 0.330000
0.827422 0.161324 0.330000
0.861885 0.208977 0.330000
0.888673 0.257689 0.330000
0.911581 0.303286 0.330000
0.933955 0.338127 0.330000
0.955409 0.363041 0.330000
0.977589 0.379976 0.330000
1.000000 0.385079 0.330000
0.000000 0.033291 0.330000
0.363041 0.044591 0.330000
0.580598 0.085295 0.330000
0.689432 0.140020 0.330000
0.751764 0.216084 0.330000
0.793878 0.286786 0.330000
0.819734 0.364031 0.330000
0.840462 0.433094 0.330000
0.858293 0.496436 0.330000
0.883460 0.544258 0.330000
0.914705 0.580598 0.330000
0.955013 0.603512 0.330000
1.000000 0.612261 0.330000
0.000000 0.050559 0.330000
0.338127 0.066045 0.330000
0.544258 0.116540 0.330000
0.647427 0.189291 0.330000
0.700104 0.279589 0.330000
0.733897 0.364071 0.330000
0.745784 0.450186 0.330000
0.760179 0.524696 0.330000
0.774740 0.593209 0.330000
0.810709 0.647427 0.330000
0.859980 0.689432 0.330000
0.925750 0.714025 0.330000
1.000000 0.725054 0.330000
0.000000 0.069807 0.330000
0.303286 0.088419 0.330000
0.496436 0.141707 0.330000
0.593209 0.225260 0.330000
0.640010 0.322796 0.330000
0.660405 0.414027 0.330000
0.659516 0.499792 0.330000
0.667558 0.573888 0.330000
0.677204 0.640010 0.330000
0.720411 0.700104 0.330000
0.783916 0.751764 0.330000