# vtk DataFile Version 2.0
Mesh for Fierro
ASCII 
DATASET UNSTRUCTURED_GRID

POINTS 845 float
0.000000 0.000000 0.000000
0.505620 0.000000 0.000000
0.892927 0.000000 0.000000
0.941138 0.000000 0.000000
0.955056 0.000000 0.000000
0.965309 0.000000 0.000000
0.973281 0.000000 0.000000
0.978436 0.000000 0.000000
0.982073 0.000000 0.000000
0.984590 0.000000 0.000000
0.983016 0.000000 0.000000
0.991001 0.000000 0.000000
1.000000 0.000000 0.000000
0.000000 0.009000 0.000000
0.611660 0.016115 0.000000
0.897491 0.103608 0.000000
0.880502 0.287165 0.000000
0.900077 0.362198 0.000000
0.903150 0.473410 0.000000
0.907726 0.567499 0.000000
0.914173 0.644553 0.000000
0.923083 0.696934 0.000000
0.936898 0.726628 0.000000
0.958527 0.705469 0.000000
0.983885 0.611660 0.000000
1.000000 0.505620 0.000000
0.000000 0.016984 0.000000
0.705469 0.041473 0.000000
0.843683 0.190454 0.000000
0.847626 0.394492 0.000000
0.841518 0.565976 0.000000
0.838126 0.655733 0.000000
0.817531 0.714519 0.000000
0.788020 0.735448 0.000000
0.782519 0.760607 0.000000
0.792665 0.797528 0.000000
0.809546 0.843683 0.000000
0.896393 0.897491 0.000000
1.000000 0.892927 0.000000
0.000000 0.015410 0.000000
0.726628 0.063102 0.000000
0.797528 0.207335 0.000000
0.824499 0.443298 0.000000
0.745334 0.574374 0.000000
0.728781 0.639861 0.000000
0.655625 0.686491 0.000000
0.582070 0.741570 0.000000
0.558907 0.788531 0.000000
0.556702 0.824499 0.000000
0.605509 0.847626 0.000000
0.712835 0.880503 0.000000
1.000000 0.941138 0.000000
0.000000 0.017927 0.000000
0.696934 0.076917 0.000000
0.760607 0.217481 0.000000
0.788531 0.441093 0.000000
0.692675 0.542505 0.000000
0.623434 0.625859 0.000000
0.541537 0.652174 0.000000
0.499415 0.671349 0.000000
0.457495 0.692675 0.000000
0.425626 0.745334 0.000000
0.434024 0.841518 0.000000
0.637803 0.900078 0.000000
1.000000 0.955056 0.000000
0.000000 0.021564 0.000000
0.644553 0.085827 0.000000
0.735448 0.211980 0.000000
0.741570 0.417930 0.000000
0.671349 0.500585 0.000000
0.592852 0.565240 0.000000
0.518215 0.575030 0.000000
0.434760 0.592852 0.000000
0.374141 0.623434 0.000000
0.360139 0.728782 0.000000
0.344268 0.838126 0.000000
0.526591 0.903150 0.000000
1.000000 0.965309 0.000000
0.000000 0.026719 0.000000
0.567499 0.092274 0.000000
0.714519 0.182469 0.000000
0.686491 0.344375 0.000000
0.652174 0.458463 0.000000
0.575030 0.481785 0.000000
0.500000 0.500000 0.000000
0.424970 0.518215 0.000000
0.347826 0.541537 0.000000
0.313509 0.655625 0.000000
0.285481 0.817531 0.000000
0.432502 0.907726 0.000000
1.000000 0.973281 0.000000
0.000000 0.034691 0.000000
0.473410 0.096850 0.000000
0.655733 0.161874 0.000000
0.639861 0.271218 0.000000
0.625859 0.376566 0.000000
0.565240 0.407148 0.000000
0.481785 0.424970 0.000000
0.407148 0.434760 0.000000
0.328651 0.499415 0.000000
0.258431 0.582070 0.000000
0.264552 0.788020 0.000000
0.355448 0.914174 0.000000
1.000000 0.978436 0.000000
0.000000 0.044944 0.000000
0.362198 0.099923 0.000000
0.565976 0.158482 0.000000
0.574374 0.254666 0.000000
0.542505 0.307325 0.000000
0.500585 0.328651 0.000000
0.458463 0.347826 0.000000
0.376566 0.374141 0.000000
0.307324 0.457495 0.000000
0.211469 0.558907 0.000000
0.239393 0.782518 0.000000
0.303067 0.923083 0.000000
1.000000 0.982073 0.000000
0.000000 0.058862 0.000000
0.287165 0.119497 0.000000
0.394492 0.152374 0.000000
0.443298 0.175501 0.000000
0.441093 0.211469 0.000000
0.417930 0.258431 0.000000
0.344375 0.313509 0.000000
0.271218 0.360139 0.000000
0.254666 0.425626 0.000000
0.175501 0.556702 0.000000
0.202472 0.792664 0.000000
0.273373 0.936898 0.000000
1.000000 0.984590 0.000000
0.000000 0.107073 0.000000
0.103608 0.102509 0.000000
0.190454 0.156317 0.000000
0.207336 0.202472 0.000000
0.217482 0.239393 0.000000
0.211980 0.264552 0.000000
0.182469 0.285481 0.000000
0.161874 0.344268 0.000000
0.158482 0.434024 0.000000
0.152374 0.605509 0.000000
0.156317 0.809546 0.000000
0.294532 0.958527 0.000000
1.000000 0.983016 0.000000
0.000000 0.494380 0.000000
0.016115 0.388340 0.000000
0.041473 0.294532 0.000000
0.063102 0.273373 0.000000
0.076917 0.303067 0.000000
0.085826 0.355449 0.000000
0.092274 0.432503 0.000000
0.096850 0.526592 0.000000
0.099922 0.637803 0.000000
0.119497 0.712835 0.000000
0.102509 0.896393 0.000000
0.388340 0.983885 0.000000
1.000000 0.991001 0.000000
0.000000 1.000000 0.000000
0.008999 1.000000 0.000000
0.016984 1.000000 0.000000
0.015410 1.000000 0.000000
0.017927 1.000000 0.000000
0.021564 1.000000 0.000000
0.026719 1.000000 0.000000
0.034691 1.000000 0.000000
0.044944 1.000000 0.000000
0.058862 1.000000 0.000000
0.107073 1.000000 0.000000
0.494380 1.000000 0.000000
1.000000 1.000000 0.000000
0.000000 0.000000 0.082500
0.505620 0.000000 0.082500
0.892927 0.000000 0.082500
0.941138 0.000000 0.082500
0.955056 0.000000 0.082500
0.965309 0.000000 0.082500
0.973281 0.000000 0.082500
0.978436 0.000000 0.082500
0.982073 0.000000 0.082500
0.984590 0.000000 0.082500
0.983016 0.000000 0.082500
0.991001 0.000000 0.082500
1.000000 0.000000 0.082500
0.000000 0.009000 0.082500
0.611660 0.016115 0.082500
0.897491 0.103608 0.082500
0.880502 0.287165 0.082500
0.900077 0.362198 0.082500
0.903150 0.473410 0.082500
0.907726 0.567499 0.082500
0.914173 0.644553 0.082500
0.923083 0.696934 0.082500
0.936898 0.726628 0.082500
0.958527 0.705469 0.082500
0.983885 0.611660 0.082500
1.000000 0.505620 0.082500
0.000000 0.016984 0.082500
0.705469 0.041473 0.082500
0.843683 0.190454 0.082500
0.847626 0.394492 0.082500
0.841518 0.565976 0.082500
0.838126 0.655733 0.082500
0.817531 0.714519 0.082500
0.788020 0.735448 0.082500
0.782519 0.760607 0.082500
0.792665 0.797528 0.082500
0.809546 0.843683 0.082500
0.896393 0.897491 0.082500
1.000000 0.892927 0.082500
0.000000 0.015410 0.082500
0.726628 0.063102 0.082500
0.797528 0.207335 0.082500
0.824499 0.443298 0.082500
0.745334 0.574374 0.082500
0.728781 0.639861 0.082500
0.655625 0.686491 0.082500
0.582070 0.741570 0.082500
0.558907 0.788531 0.082500
0.556702 0.824499 0.082500
0.605509 0.847626 0.082500
0.712835 0.880503 0.082500
1.000000 0.941138 0.082500
0.000000 0.017927 0.082500
0.696934 0.076917 0.082500
0.760607 0.217481 0.082500
0.788531 0.441093 0.082500
0.692675 0.542505 0.082500
0.623434 0.625859 0.082500
0.541537 0.652174 0.082500
0.499415 0.671349 0.082500
0.457495 0.692675 0.082500
0.425626 0.745334 0.082500
0.434024 0.841518 0.082500
0.637803 0.900078 0.082500
1.000000 0.955056 0.082500
0.000000 0.021564 0.082500
0.644553 0.085827 0.082500
0.735448 0.211980 0.082500
0.741570 0.417930 0.082500
0.671349 0.500585 0.082500
0.592852 0.565240 0.082500
0.518215 0.575030 0.082500
0.434760 0.592852 0.082500
0.374141 0.623434 0.082500
0.360139 0.728782 0.082500
0.344268 0.838126 0.082500
0.526591 0.903150 0.082500
1.000000 0.965309 0.082500
0.000000 0.026719 0.082500
0.567499 0.092274 0.082500
0.714519 0.182469 0.082500
0.686491 0.344375 0.082500
0.652174 0.458463 0.082500
0.575030 0.481785 0.082500
0.500000 0.500000 0.082500
0.424970 0.518215 0.082500
0.347826 0.541537 0.082500
0.313509 0.655625 0.082500
0.285481 0.817531 0.082500
0.432502 0.907726 0.082500
1.000000 0.973281 0.082500
0.000000 0.034691 0.082500
0.473410 0.096850 0.082500
0.655733 0.161874 0.082500
0.639861 0.271218 0.082500
0.625859 0.376566 0.082500
0.565240 0.407148 0.082500
0.481785 0.424970 0.082500
0.407148 0.434760 0.082500
0.328651 0.499415 0.082500
0.258431 0.582070 0.082500
0.264552 0.788020 0.082500
0.355448 0.914174 0.082500
1.000000 0.978436 0.082500
0.000000 0.044944 0.082500
0.362198 0.099923 0.082500
0.565976 0.158482 0.082500
0.574374 0.254666 0.082500
0.542505 0.307325 0.082500
0.500585 0.328651 0.082500
0.458463 0.347826 0.082500
0.376566 0.374141 0.082500
0.307324 0.457495 0.082500
0.211469 0.558907 0.082500
0.239393 0.782518 0.082500
0.303067 0.923083 0.082500
1.000000 0.982073 0.082500
0.000000 0.058862 0.082500
0.287165 0.119497 0.082500
0.394492 0.152374 0.082500
0.443298 0.175501 0.082500
0.441093 0.211469 0.082500
0.417930 0.258431 0.082500
0.344375 0.313509 0.082500
0.271218 0.360139 0.082500
0.254666 0.425626 0.082500
0.175501 0.556702 0.082500
0.202472 0.792664 0.082500
0.273373 0.936898 0.082500
1.000000 0.984590 0.082500
0.000000 0.107073 0.082500
0.103608 0.102509 0.082500
0.190454 0.156317 0.082500
0.207336 0.202472 0.082500
0.217482 0.239393 0.082500
0.211980 0.264552 0.082500
0.182469 0.285481 0.082500
0.161874 0.344268 0.082500
0.158482 0.434024 0.082500
0.152374 0.605509 0.082500
0.156317 0.809546 0.082500
0.294532 0.958527 0.082500
1.000000 0.983016 0.082500
0.000000 0.494380 0.082500
0.016115 0.388340 0.082500
0.041473 0.294532 0.082500
0.063102 0.273373 0.082500
0.076917 0.303067 0.082500
0.085826 0.355449 0.082500
0.092274 0.432503 0.082500
0.096850 0.526592 0.082500
0.099922 0.637803 0.082500
0.119497 0.712835 0.082500
0.102509 0.896393 0.082500
0.388340 0.983885 0.082500
1.000000 0.991001 0.082500
0.000000 1.000000 0.082500
0.008999 1.000000 0.082500
0.016984 1.000000 0.082500
0.015410 1.000000 0.082500
0.017927 1.000000 0.082500
0.021564 1.000000 0.082500
0.026719 1.000000 0.082500
0.034691 1.000000 0.082500
0.044944 1.000000 0.082500
0.058862 1.000000 0.082500
0.107073 1.000000 0.082500
0.494380 1.000000 0.082500
1.000000 1.000000 0.082500
0.000000 0.000000 0.165000
0.505620 0.000000 0.165000
0.892927 0.000000 0.165000
0.941138 0.000000 0.165000
0.955056 0.000000 0.165000
0.965309 0.000000 0.165000
0.973281 0.000000 0.165000
0.978436 0.000000 0.165000
0.982073 0.000000 0.165000
0.984590 0.000000 0.165000
0.983016 0.000000 0.165000
0.991001 0.000000 0.165000
1.000000 0.000000 0.165000
0.000000 0.009000 0.165000
0.611660 0.016115 0.165000
0.897491 0.103608 0.165000
0.880502 0.287165 0.165000
0.900077 0.362198 0.165000
0.903150 0.473410 0.165000
0.907726 0.567499 0.165000
0.914173 0.644553 0.165000
0.923083 0.696934 0.165000
0.936898 0.726628 0.165000
0.958527 0.705469 0.165000
0.983885 0.611660 0.165000
1.000000 0.505620 0.165000
0.000000 0.016984 0.165000
0.705469 0.041473 0.165000
[...]
POINT_DATA 845 
VECTORS pos float 
0.000000 0.000000 0.000000
0.505620 0.000000 0.000000
0.892927 0.000000 0.000000
0.941138 0.000000 0.000000
0.955056 0.000000 0.000000
0.965309 0.000000 0.000000
0.973281 0.000000 0.000000
0.978436 0.000000 0.000000
0.982073 0.000000 0.000000
0.984590 0.000000 0.000000
0.983016 0.000000 0.000000
0.991001 0.000000 0.000000
1.000000 0.000000 0.000000
0.000000 0.009000 0.000000
0.611660 0.016115 0.000000
0.897491 0.103608 0.000000
0.880502 0.287165 0.000000
0.900077 0.362198 0.000000
0.903150 0.473410 0.000000
0.907726 0.567499 0.000000
0.914173 0.644553 0.000000
0.923083 0.696934 0.000000
0.936898 0.726628 0.000000
0.958527 0.705469 0.000000
0.983885 0.611660 0.000000
1.000000 0.505620 0.000000
0.000000 0.016984 0.000000
0.705469 0.041473 0.000000
0.843683 0.190454 0.000000
0.847626 0.394492 0.000000
0.841518 0.565976 0.000000
0.838126 0.655733 0.000000
0.817531 0.714519 0.000000
0.788020 0.735448 0.000000
0.782519 0.760607 0.000000
0.792665 0.797528 0.000000
0.809546 0.843683 0.000000
0.896393 0.897491 0.000000
1.000000 0.892927 0.000000
0.000000 0.015410 0.000000
0.726628 0.063102 0.000000
0.797528 0.207335 0.000000
0.824499 0.443298 0.000000
0.745334 0.574374 0.000000
0.728781 0.639861 0.000000
0.655625 0.686491 0.000000
0.582070 0.741570 0.000000
0.558907 0.788531 0.000000
0.556702 0.824499 0.000000
0.605509 0.847626 0.000000
0.712835 0.880503 0.000000
1.000000 0.941138 0.000000
0.000000 0.017927 0.000000
0.696934 0.076917 0.000000
0.760607 0.217481 0.000000
0.788531 0.441093 0.000000
0.692675 0.542505 0.000000
0.623434 0.625859 0.000000
0.541537 0.652174 0.000000
0.499415 0.671349 0.000000
0.457495 0.692675 0.000000
0.425626 0.745334 0.000000
0.434024 0.841518 0.000000
0.637803 0.900078 0.000000
1.000000 0.955056 0.000000
0.000000 0.021564 0.000000
0.644553 0.085827 0.000000
0.735448 0.211980 0.000000
0.741570 0.417930 0.000000
0.671349 0.500585 0.000000
0.592852 0.565240 0.000000
0.518215 0.575030 0.000000
0.434760 0.592852 0.000000
0.374141 0.623434 0.000000
0.360139 0.728782 0.000000
0.344268 0.838126 0.000000
0.526591 0.903150 0.000000
1.000000 0.965309 0.000000
0.000000 0.026719 0.000000
0.567499 0.092274 0.000000
0.714519 0.182469 0.000000
0.686491 0.344375 0.000000
0.652174 0.458463 0.000000
0.575030 0.481785 0.000000
0.500000 0.500000 0.000000
0.424970 0.518215 0.000000
0.347826 0.541537 0.000000
0.313509 0.655625 0.000000
0.285481 0.817531 0.000000
0.432502 0.907726 0.000000
1.000000 0.973281 0.000000
0.000000 0.034691 0.000000
0.473410 0.096850 0.000000
0.655733 0.161874 0.000000
0.639861 0.271218 0.000000
0.625859 0.376566 0.000000
0.565240 0.407148 0.000000
0.481785 0.424970 0.000000
0.407148 0.434760 0.000000
0.328651 0.499415 0.000000
0.258431 0.582070 0.000000
0.264552 0.788020 0.000000
0.355448 0.914174 0.000000
1.000000 0.978436 0.000000
0.000000 0.044944 0.000000
0.362198 0.099923 0.000000
0.565976 0.158482 0.000000
0.574374 0.254666 0.000000
0.542505 0.307325 0.000000
0.500585 0.328651 0.000000
0.458463 0.347826 0.000000
0.376566 0.374141 0.000000
0.307324 0.457495 0.000000
0.211469 0.558907 0.000000
0.239393 0.782518 0.000000
0.303067 0.923083 0.000000
1.000000 0.982073 0.000000
0.000000 0.058862 0.000000
0.287165 0.119497 0.000000
0.394492 0.152374 0.000000
0.443298 0.175501 0.000000
0.441093 0.211469 0.000000
0.417930 0.258431 0.000000
0.344375 0.313509 0.000000
0.271218 0.360139 0.000000
0.254666 0.425626 0.000000
0.175501 0.556702 0.000000
0.202472 0.792664 0.000000
0.273373 0.936898 0.000000
1.000000 0.984590 0.000000
0.000000 0.107073 0.000000
0.103608 0.102509 0.000000
0.190454 0.156317 0.000000
0.207336 0.202472 0.000000
0.217482 0.239393 0.000000
0.211980 0.264552 0.000000
0.182469 0.285481 0.000000
0.161874 0.344268 0.000000
0.158482 0.434024 0.000000
0.152374 0.605509 0.000000
0.156317 0.809546 0.000000
0.294532 0.958527 0.000000
1.000000 0.983016 0.000000
0.000000 0.494380 0.000000
0.016115 0.388340 0.000000
0.041473 0.294532 0.000000
0.063102 0.273373 0.000000
0.076917 0.303067 0.000000
0.085826 0.355449 0.000000
0.092274 0.432503 0.000000
0.096850 0.526592 0.000000
0.099922 0.637803 0.000000
0.119497 0.712835 0.000000
0.102509 0.896393 0.000000
0.388340 0.983885 0.000000
1.000000 0.991001 0.000000
0.000000 1.000000 0.000000
0.008999 1.000000 0.000000
0.016984 1.000000 0.000000
0.015410 1.000000 0.000000
0.017927 1.000000 0.000000
0.021564 1.000000 0.000000
0.026719 1.000000 0.000000
0.034691 1.000000 0.000000
0.044944 1.000000 0.000000
0.058862 1.000000 0.000000
0.107073 1.000000 0.000000
0.494380 1.000000 0.000000
1.000000 1.000000 0.000000
0.000000 0.000000 0.082500
0.505620 0.000000 0.082500
0.892927 0.000000 0.082500
0.941138 0.000000 0.082500
0.955056 0.000000 0.082500
0.965309 0.000000 0.082500
0.973281 0.000000 0.082500
0.978436 0.000000 0.082500
0.982073 0.000000 0.082500
0.984590 0.000000 0.082500
0.983016 0.000000 0.082500
0.991001 0.000000 0.082500
1.000000 0.000000 0.082500
0.000000 0.009000 0.082500
0.611660 0.016115 0.082500
0.897491 0.103608 0.082500
0.880502 0.287165 0.082500
0.900077 0.362198 0.082500
0.903150 0.473410 0.082500
0.907726 0.567499 0.082500
0.914173 0.644553 0.082500
0.923083 0.696934 0.082500
0.936898 0.726628 0.082500
0.958527 0.705469 0.082500
0.983885 0.611660 0.082500
1.000000 0.505620 0.082500
0.000000 0.016984 0.082500
0.705469 0.041473 0.082500
0.843683 0.190454 0.082500
0.847626 0.394492 0.082500
0.841518 0.565976 0.082500
0.838126 0.655733 0.082500
0.817531 0.714519 0.082500
0.788020 0.735448 0.082500
0.782519 0.760607 0.082500
0.792665 0.797528 0.082500
0.809546 0.843683 0.082500
0.896393 0.897491 0.082500
1.000000 0.892927 0.082500
0.000000 0.015410 0.082500
0.726628 0.063102 0.082500
0.797528 0.207335 0.082500
0.824499 0.443298 0.082500
0.745334 0.574374 0.082500
0.728781 0.639861 0.082500
0.655625 0.686491 0.082500
0.582070 0.741570 0.082500
0.558907 0.788531 0.082500
0.556702 0.824499 0.082500
0.605509 0.847626 0.082500
0.712835 0.880503 0.082500
1.000000 0.941138 0.082500
0.000000 0.017927 0.082500
0.696934 0.076917 0.082500
0.760607 0.217481 0.082500
0.788531 0.441093 0.082500
0.692675 0.542505 0.082500
0.623434 0.625859 0.082500
0.541537 0.652174 0.082500
0.499415 0.671349 0.082500
0.457495 0.692675 0.082500
0.425626 0.745334 0.082500
0.434024 0.841518 0.082500
0.637803 0.900078 0.082500
1.000000 0.955056 0.082500
0.000000 0.021564 0.082500
0.644553 0.085827 0.082500
0.735448 0.211980 0.082500
0.741570 0.417930 0.082500
0.671349 0.500585 0.082500
0.592852 0.565240 0.082500
0.518215 0.575030 0.082500
0.434760 0.592852 0.082500
0.374141 0.623434 0.082500
0.360139 0.728782 0.082500
0.344268 0.838126 0.082500
0.526591 0.903150 0.082500
1.000000 0.965309 0.082500
0.000000 0.026719 0.082500
0.567499 0.092274 0.082500
0.714519 0.182469 0.082500
0.686491 0.344375 0.082500
0.652174 0.458463 0.082500
0.575030 0.481785 0.082500
0.500000 0.500000 0.082500
0.424970 0.518215 0.082500
0.347826 0.541537 0.082500
0.313509 0.655625 0.082500
0.285481 0.817531 0.082500
0.432502 0.907726 0.082500
1.000000 0.973281 0.082500
0.000000 0.034691 0.082500
0.473410 0.096850 0.082500
0.655733 0.161874 0.082500
0.639861 0.271218 0.082500
0.625859 0.376566 0.082500
0.565240 0.407148 0.082500
0.481785 0.424970 0.082500
0.407148 0.434760 0.082500
0.328651 0.499415 0.082500
0.258431 0.582070 0.082500
0.264552 0.788020 0.082500
0.355448 0.914174 0.082500
1.000000 0.978436 0.082500
0.000000 0.044944 0.082500
0.362198 0.099923 0.082500
0.565976 0.158482 0.082500
0.574374 0.254666 0.082500
0.542505 0.307325 0.082500
0.500585 0.328651 0.082500
0.458463 0.347826 0.082500
0.376566 0.374141 0.082500
0.307324 0.457495 0.082500
0.211469 0.558907 0.082500
0.239393 0.782518 0.082500
0.303067 0.923083 0.082500
1.000000 0.982073 0.082500
0.000000 0.058862 0.082500
0.287165 0.119497 0.082500
0.394492 0.152374 0.082500
0.443298 0.175501 0.082500
0.441093 0.211469 0.082500
0.417930 0.258431 0.082500
0.344375 0.313509 0.082500
0.271218 0.360139 0.082500
0.254666 0.425626 0.082500
0.175501 0.556702 0.082500
0.202472 0.792664 0.082500
0.273373 0.936898 0.082500
1.000000 0.984590 0.082500
0.000000 0.107073 0.082500
0.103608 0.102509 0.082500
0.190454 0.156317 0.082500
0.207336 0.202472 0.082500
0.217482 0.239393 0.082500
0.211980 0.264552 0.082500
0.182469 0.285481 0.082500
0.161874 0.344268 0.082500
0.158482 0.434024 0.082500
0.152374 0.605509 0.082500
0.156317 0.809546 0.082500
0.294532 0.958527 0.082500
1.000000 0.983016 0.082500
0.000000 0.494380 0.082500
0.016115 0.388340 0.082500
0.041473 0.294532 0.082500
0.063102 0.273373 0.082500
0.076917 0.303067 0.082500
0.085826 0.355449 0.082500
0.092274 0.432503 0.082500
0.096850 0.526592 0.082500
0.099922 0.637803 0.082500
0.119497 0.712835 0.082500
0.102509 0.896393 0.082500
0.388340 0.983885 0.082500
1.000000 0.991001 0.082500
0.000000 1.000000 0.082500
0.008999 1.000000 0.082500
0.016984 1.000000 0.082500
0.015410 1.000000 0.082500
0.017927 1.000000 0.082500
0.021564 1.000000 0.082500
0.026719 1.000000 0.082500
0.034691 1.000000 0.082500
0.044944 1.000000 0.082500
0.058862 1.000000 0.082500
0.107073 1.000000 0.082500
0.494380 1.000000 0.082500
1.000000 1.000000 0.082500
0.000000 0.000000 0.165000
0.505620 0.000000 0.165000
0.892927 0.000000 0.165000
0.941138 0.000000 0.165000
0.955056 0.000000 0.165000
0.965309 0.000000 0.165000
0.973281 0.000000 0.165000
0.978436 0.000000 0.165000
0.982073 0.000000 0.165000
0.984590 0.000000 0.165000
0.983016 0.000000 0.165000
0.991001 0.000000 0.165000
1.000000 0.000000 0.165000
0.000000 0.009000 0.165000
0.611660 0.016115 0.165000
0.897491 0.103608 0.165000
0.880502 0.287165 0.165000
0.900077 0.362198 0.165000
0.903150 0.473410 0.165000
0.907726 0.567499 0.165000
0.914173 0.644553 0.165000
0.923083 0.696934 0.165000
0.936898 0.726628 0.165000
0.958527 0.705469 0.165000
0.983885 0.611660 0.165000
1.000000 0.505620 0.165000
0.000000 0.016984 0.165000
0.705469 0.041473 0.165000
0.843683 0.190454 0.165000
0.847626 0.394492 0.165000
0.841518 0.565976 0.165000
0.838126 0.655733 0.165000
0.817531 0.714519 0.165000
0.788020 0.735448 0.165000
0.782519 0.760607 0.165000
0.792665 0.797528 0.165000
0.809546 0.843683 0.165000
0.896393 0.897491 0.165000
1.000000 0.892927 0.165000
0.000000 0.015410 0.165000
0.726628 0.063102 0.165000
0.797528 0.207335 0.165000
0.824499 0.443298 0.165000
0.745334 0.574374 0.165000
0.728781 0.639861 0.165000
0.655625 0.686491 0.165000
0.582070 0.741570 0.165000
0.558907 0.788531 0.165000
0.556702 0.824499 0.165000
0.605509 0.847626 0.165000
0.712835 0.880503 0.165000
1.000000 0.941138 0.165000
0.000000 0.017927 0.165000
0.696934 0.076917 0.165000
0.760607 0.217481 0.165000
0.788531 0.441093 0.165000
0.692675 0.542505 0.165000
0.623434 0.625859 0.165000
0.541537 0.652174 0.165000
0.499415 0.671349 0.165000
0.457495 0.692675 0.165000
0.425626 0.745334 0.165000
0.434024 0.841518 0.165000
0.637803 0.900078 0.165000
1.000000 0.955056 0.165000
0.000000 0.021564 0.165000
0.644553 0.085827 0.165000
0.735448 0.211980 0.165000
0.741570 0.417930 0.165000
0.671349 0.500585 0.165000
0.592852 0.565240 0.165000
0.518215 0.575030 0.165000
0.434760 0.592852 0.165000
0.374141 0.623434 0.165000
0.360139 0.728782 0.165000
0.344268 0.838126 0.165000
0.526591 0.903150 0.165000
1.000000 0.965309 0.165000
0.000000 0.026719 0.165000
0.567499 0.092274 0.165000
0.714519 0.182469 0.165000
0.686491 0.344375 0.165000
0.652174 0.458463 0.165000
0.575030 0.481785 0.165000
0.500000 0.500000 0.165000
0.424970 0.518215 0.165000
0.347826 0.541537 0.165000
0.313509 0.655625 0.165000
0.285481 0.817531 0.165000
0.432502 0.907726 0.165000
1.000000 0.973281 0.165000
0.000000 0.034691 0.165000
0.473410 0.096850 0.165000
0.655733 0.161874 0.165000
0.639861 0.271218 0.165000
0.625859 0.376566 0.165000
0.565240 0.407148 0.165000
0.481785 0.424970 0.165000
0.407148 0.434760 0.165000
0.328651 0.499415 0.165000
0.258431 0.582070 0.165000
0.264552 0.788020 0.165000
0.355448 0.914174 0.165000
1.000000 0.978436 0.165000
0.000000 0.044944 0.165000
0.362198 0.099923 0.165000
0.565976 0.158482 0.165000
0.574374 0.254666 0.165000
0.542505 0.307325 0.165000
0.500585 0.328651 0.165000
0.458463 0.347826 0.165000
0.376566 0.374141 0.165000
0.307324 0.457495 0.165000
0.211469 0.558907 0.165000
0.239393 0.782518 0.165000
0.303067 0.923083 0.165000
1.000000 0.982073 0.165000
0.000000 0.058862 0.165000
0.287165 0.119497 0.165000
0.394492 0.152374 0.165000
0.443298 0.175501 0.165000
0.441093 0.211469 0.165000
0.417930 0.258431 0.165000
0.344375 0.313509 0.165000
0.271218 0.360139 0.165000
0.254666 0.425626 0.165000
0.175501 0.556702 0.165000
0.202472 0.792664 0.165000
0.273373 0.936898 0.165000
1.000000 0.984590 0.165000
0.000000 0.107073 0.165000
0.103608 0.102509 0.165000
0.190454 0.156317 0.165000
0.207336 0.202472 0.165000
0.217482 0.239393 0.165000
0.211980 0.264552 0.165000
0.182469 0.285481 0.165000
0.161874 0.344268 0.165000
0.158482 0.434024 0.165000
0.152374 0.605509 0.165000
0.156317 0.809546 0.165000
0.294532 0.958527 0.165000
1.000000 0.983016 0.165000
0.000000 0.494380 0.165000
0.016115 0.388340 0.165000
0.041473 0.294532 0.165000
0.063102 0.273373 0.165000
0.076917 0.303067 0.165000
0.085826 0.355449 0.165000
0.092274 0.432503 0.165000
0.096850 0.526592 0.165000
0.099922 0.637803 0.165000
0.119497 0.712835 0.165000
0.102509 0.896393 0.165000
0.388340 0.983885 0.165000
1.000000 0.991001 0.165000
0.000000 1.000000 0.165000
0.008999 1.000000 0.165000
0.016984 1.000000 0.165000
0.015410 1.000000 0.165000
0.017927 1.000000 0.165000
0.021564 1.000000 0.165000
0.026719 1.000000 0.165000
0.034691 1.000000 0.165000
0.044944 1.000000 0.165000
0.058862 1.000000 0.165000
0.107073 1.000000 0.165000
0.494380 1.000000 0.165000
1.000000 1.000000 0.165000
0.000000 0.000000 0.247500
0.505620 0.000000 0.247500
0.892927 0.000000 0.247500
0.941138 0.000000 0.247500
0.955056 0.000000 0.247500
0.965309 0.000000 0.247500
0.973281 0.000000 0.247500
0.978436 0.000000 0.247500
0.982073 0.000000 0.247500
0.984590 0.000000 0.247500
0.983016 0.000000 0.247500
0.991001 0.000000 0.247500
1.000000 0.000000 0.247500
0.000000 0.009000 0.247500
0.611660 0.016115 0.247500
0.897491 0.103608 0.247500
0.880502 0.287165 0.247500
0.900077 0.362198 0.247500
0.903150 0.473410 0.247500
0.907726 0.567499 0.247500
0.914173 0.644553 0.247500
0.923083 0.696934 0.247500
0.936898 0.726628 0.247500
0.958527 0.705469 0.247500
0.983885 0.611660 0.247500
1.000000 0.505620 0.247500
0.000000 0.016984 0.247500
0.705469 0.041473 0.247500
0.843683 0.190454 0.247500
0.847626 0.394492 0.247500
0.841518 0.565976 0.247500
0.838126 0.655733 0.247500
0.817531 0.714519 0.247500
0.788020 0.735448 0.247500
0.782519 0.760607 0.247500
0.792665 0.797528 0.247500
0.809546 0.843683 0.247500
0.896393 0.897491 0.247500
1.000000 0.892927 0.247500
0.000000 0.015410 0.247500
0.726628 0.063102 0.247500
0.797528 0.207335 0.247500
0.824499 0.443298 0.247500
0.745334 0.574374 0.247500
0.728781 0.639861 0.247500
0.655625 0.686491 0.247500
0.582070 0.741570 0.247500
0.558907 0.788531 0.247500
0.556702 0.824499 0.247500
0.605509 0.847626 0.247500
0.712835 0.880503 0.247500
1.000000 0.941138 0.247500
0.000000 0.017927 0.247500
0.696934 0.076917 0.247500
0.760607 0.217481 0.247500
0.788531 0.441093 0.247500
0.692675 0.542505 0.247500
0.623434 0.625859 0.247500
0.541537 0.652174 0.247500
0.499415 0.671349 0.247500
0.457495 0.692675 0.247500
0.425626 0.745334 0.247500
0.434024 0.841518 0.247500
0.637803 0.900078 0.247500
1.000000 0.955056 0.247500
0.000000 0.021564 0.247500
0.644553 0.085827 0.247500
0.735448 0.211980 0.247500
0.741570 0.417930 0.247500
0.671349 0.500585 0.247500
0.592852 0.565240 0.247500
0.518215 0.575030 0.247500
0.434760 0.592852 0.247500
0.374141 0.623434 0.247500
0.360139 0.728782 0.247500
0.344268 0.838126 0.247500
0.526591 0.903150 0.247500
1.000000 0.965309 0.247500
0.000000 0.026719 0.247500
0.567499 0.092274 0.247500
0.714519 0.182469 0.247500
0.686491 0.344375 0.247500
0.652174 0.458463 0.247500
0.575030 0.481785 0.247500
0.500000 0.500000 0.247500
0.424970 0.518215 0.247500
0.347826 0.541537 0.247500
0.313509 0.655625 0.247500
0.285481 0.817531 0.247500
0.432502 0.907726 0.247500
1.000000 0.973281 0.247500
0.000000 0.034691 0.247500
0.473410 0.096850 0.247500
0.655733 0.161874 0.247500
0.639861 0.271218 0.247500
0.625859 0.376566 0.247500
0.565240 0.407148 0.247500
0.481785 0.424970 0.247500
0.407148 0.434760 0.247500
0.328651 0.499415 0.247500
0.258431 0.582070 0.247500
0.264552 0.788020 0.247500
0.355448 0.914174 0.247500
1.000000 0.978436 0.247500
0.000000 0.044944 0.247500
0.362198 0.099923 0.247500
0.565976 0.158482 0.247500
0.574374 0.254666 0.247500
0.542505 0.307325 0.247500
0.500585 0.328651 0.247500
0.458463 0.347826 0.247500
0.376566 0.374141 0.247500
0.307324 0.457495 0.247500
0.211469 0.558907 0.247500
0.239393 0.782518 0.247500
0.303067 0.923083 0.247500
1.000000 0.982073 0.247500
0.000000 0.058862 0.247500
0.287165 0.119497 0.247500
0.394492 0.152374 0.247500
0.443298 0.175501 0.247500
0.441093 0.211469 0.247500
0.417930 0.258431 0.247500
0.344375 0.313509 0.247500
0.271218 0.360139 0.247500
0.254666 0.425626 0.247500
0.175501 0.556702 0.247500
0.202472 0.792664 0.247500
0.273373 0.936898 0.247500
1.000000 0.984590 0.247500
0.000000 0.107073 0.247500
0.103608 0.102509 0.247500
0.190454 0.156317 0.247500
0.207336 0.202472 0.247500
0.217482 0.239393 0.247500
0.211980 0.264552 0.247500
0.182469 0.285481 0.247500
0.161874 0.344268 0.247500
0.158482 0.434024 0.247500
0.152374 0.605509 0.247500
0.156317 0.809546 0.247500
0.294532 0.958527 0.247500
1.000000 0.983016 0.247500
0.000000 0.494380 0.247500
0.016115 0.388340 0.247500
0.041473 0.294532 0.247500
0.063102 0.273373 0.247500
0.076917 0.303067 0.247500
0.085826 0.355449 0.247500
0.092274 0.432503 0.247500
0.096850 0.526592 0.247500
0.099922 0.637803 0.247500
0.119497 0.712835 0.247500
0.102509 0.896393 0.247500
0.388340 0.983885 0.247500
1.000000 0.991001 0.247500
0.000000 1.000000 0.247500
0.008999 1.000000 0.247500
0.016984 1.000000 0.247500
0.015410 1.000000 0.247500
0.017927 1.000000 0.247500
0.021564 1.000000 0.247500
0.026719 1.000000 0.247500
0.034691 1.000000 0.247500
0.044944 1.000000 0.247500
0.058862 1.000000 0.247500
0.107073 1.000000 0.247500
0.494380 1.000000 0.247500
1.000000 1.000000 0.247500
0.000000 0.000000 0.330000
0.505620 0.000000 0.330000
0.892927 0.000000 0.330000
0.941138 0.000000 0.330000
0.955056 0.000000 0.330000
0.965309 0.000000 0.330000
0.973281 0.000000 0.330000
0.978436 0.000000 0.330000
0.982073 0.000000 0.330000
0.984590 0.000000 0.330000
0.983016 0.000000 0.330000
0.991001 0.000000 0.330000
1.000000 0.000000 0.330000
0.000000 0.009000 0.330000
0.611660 0.016115 0.330000
0.897491 0.103608 0.330000
0.880502 0.287165 0.330000
0.900077 0.362198 0.330000
0.903150 0.473410 0.330000
0.907726 0.567499 0.330000
0.914173 0.644553 0.330000
0.923083 0.696934 0.330000
0.936898 0.726628 0.330000
0.958527 0.705469 0.330000
0.983885 0.611660 0.330000
1.000000 0.505620 0.330000
0.000000 0.016984 0.330000
0.705469 0.041473 0.330000
0.843683 0.190454 0.330000
0.847626 0.394492 0.330000
0.841518 0.565976 0.330000
0.838126 0.655733 0.330000
0.817531 0.714519 0.330000
0.788020 0.735448 0.330000
0.782519 0.760607 0.330000
0.792665 0.797528 0.330000
0.809546 0.843683 0.330000
0.896393 0.897491 0.330000
1.000000 0.892927 0.330000
0.000000 0.015410 0.330000
0.726628 0.063102 0.330000
0.797528 0.207335 0.330000
0.824499 0.443298 0.330000
0.745334 0.574374 0.330000
0.728781 0.639861 0.330000
0.655625 0.686491 0.330000
0.582070 0.741570 0.330000
0.558907 0.788531 0.330000
0.556702 0.824499 0.330000
0.605509 0.847626 0.330000
0.712835 0.880503 0.330000
1.000000 0.941138 0.330000
0.000000 0.017927 0.330000
0.696934 0.076917 0.330000
0.760607 0.217481 0.330000
0.788531 0.441093 0.330000
0.692675 0.542505 0.330000
0.623434 0.625859 0.330000
0.541537 0.652174 0.330000
0.499415 0.671349 0.330000
0.457495 0.692675 0.330000
0.425626 0.745334 0.330000
0.434024 0.841518 0.330000