# vtk DataFile Version 2.0
Mesh for Fierro
ASCII 
DATASET UNSTRUCTURED_GRID

POINTS 845 float
0.000000 0.000000 0.000000
0.287147 0.000000 0.000000
0.493205 0.000000 0.000000
0.626415 0.000000 0.000000
0.716361 0.000000 0.000000
0.782533 0.000000 0.000000
0.834151 0.000000 0.000000
0.874381 0.000000 0.000000
0.904824 0.000000 0.000000
0.932240 0.000000 0.000000
0.955906 0.000000 0.000000
0.978328 0.000000 0.000000
1.000000 0.000000 0.000000
0.000000 0.021672 0.000000
0.282955 0.027023 0.000000
0.486967 0.040931 0.000000
0.617793 0.063381 0.000000
0.706601 0.091980 0.000000
0.769556 0.122105 0.000000
0.819099 0.155661 0.000000
0.857160 0.189475 0.000000
0.888794 0.222861 0.000000
0.918185 0.249819 0.000000
0.945338 0.269364 0.000000
0.972978 0.282955 0.000000
1.000000 0.287147 0.000000
0.000000 0.044094 0.000000
0.269364 0.054662 0.000000
0.467603 0.080303 0.000000
0.593913 0.121838 0.000000
0.679098 0.172334 0.000000
0.738450 0.226221 0.000000
0.782896 0.285034 0.000000
0.819577 0.340982 0.000000
0.851119 0.395210 0.000000
0.884671 0.436830 0.000000
0.919697 0.467603 0.000000
0.959069 0.486967 0.000000
1.000000 0.493205 0.000000
0.000000 0.067760 0.000000
0.249819 0.081815 0.000000
0.436830 0.115329 0.000000
0.556059 0.171641 0.000000
0.635006 0.237363 0.000000
0.687699 0.305911 0.000000
0.722922 0.378160 0.000000
0.756119 0.443729 0.000000
0.786412 0.506137 0.000000
0.828359 0.556059 0.000000
0.878162 0.593913 0.000000
0.936620 0.617793 0.000000
1.000000 0.626415 0.000000
0.000000 0.095176 0.000000
0.222861 0.111206 0.000000
0.395210 0.148881 0.000000
0.506137 0.213588 0.000000
0.580474 0.289420 0.000000
0.624311 0.366998 0.000000
0.651895 0.445745 0.000000
0.680934 0.515999 0.000000
0.710580 0.580474 0.000000
0.762637 0.635006 0.000000
0.827666 0.679098 0.000000
0.908021 0.706601 0.000000
1.000000 0.716361 0.000000
0.000000 0.125619 0.000000
0.189475 0.142840 0.000000
0.340982 0.180423 0.000000
0.443729 0.243881 0.000000
0.515999 0.319066 0.000000
0.553415 0.397013 0.000000
0.577632 0.477038 0.000000
0.602987 0.553415 0.000000
0.633002 0.624311 0.000000
0.694089 0.687699 0.000000
0.773779 0.738450 0.000000
0.877895 0.769556 0.000000
1.000000 0.782533 0.000000
0.000000 0.165849 0.000000
0.155661 0.180901 0.000000
0.285034 0.217104 0.000000
0.378160 0.277078 0.000000
0.445745 0.348105 0.000000
0.477038 0.422368 0.000000
0.500000 0.500000 0.000000
0.522962 0.577632 0.000000
0.554255 0.651895 0.000000
0.621840 0.722922 0.000000
0.714966 0.782896 0.000000
0.844340 0.819099 0.000000
1.000000 0.834151 0.000000
0.000000 0.217467 0.000000
0.122105 0.230444 0.000000
0.226221 0.261550 0.000000
0.305911 0.312300 0.000000
0.366998 0.375689 0.000000
0.397013 0.446585 0.000000
0.422368 0.522962 0.000000
0.446585 0.602987 0.000000
0.484001 0.680934 0.000000
0.556271 0.756119 0.000000
0.659018 0.819577 0.000000
0.810525 0.857160 0.000000
1.000000 0.874381 0.000000
0.000000 0.283639 0.000000
0.091980 0.293399 0.000000
0.172334 0.320902 0.000000
0.237363 0.364994 0.000000
0.289420 0.419526 0.000000
0.319066 0.484001 0.000000
0.348105 0.554255 0.000000
0.375689 0.633002 0.000000
0.419526 0.710580 0.000000
0.493863 0.786412 0.000000
0.604790 0.851119 0.000000
0.777140 0.888794 0.000000
1.000000 0.904824 0.000000
0.000000 0.373585 0.000000
0.063381 0.382207 0.000000
0.121838 0.406087 0.000000
0.171641 0.443941 0.000000
0.213588 0.493863 0.000000
0.243881 0.556271 0.000000
0.277078 0.621840 0.000000
0.312300 0.694089 0.000000
0.364994 0.762637 0.000000
0.443941 0.828359 0.000000
0.563170 0.884671 0.000000
0.750182 0.918185 0.000000
1.000000 0.932240 0.000000
0.000000 0.506795 0.000000
0.040931 0.513033 0.000000
0.080303 0.532397 0.000000
0.115329 0.563170 0.000000
0.148881 0.604790 0.000000
0.180423 0.659018 0.000000
0.217104 0.714966 0.000000
0.261550 0.773779 0.000000
0.320902 0.827666 0.000000
0.406087 0.878162 0.000000
0.532397 0.919697 0.000000
0.730637 0.945338 0.000000
1.000000 0.955906 0.000000
0.000000 0.712854 0.000000
0.027022 0.717046 0.000000
0.054662 0.730637 0.000000
0.081815 0.750182 0.000000
0.111206 0.777140 0.000000
0.142840 0.810525 0.000000
0.180901 0.844340 0.000000
0.230444 0.877895 0.000000
0.293399 0.908021 0.000000
0.382207 0.936619 0.000000
0.513033 0.959069 0.000000
0.717046 0.972978 0.000000
1.000000 0.978328 0.000000
0.000000 1.000000 0.000000
0.021672 1.000000 0.000000
0.044094 1.000000 0.000000
0.067760 1.000000 0.000000
0.095176 1.000000 0.000000
0.125619 1.000000 0.000000
0.165849 1.000000 0.000000
0.217467 1.000000 0.000000
0.283639 1.000000 0.000000
0.373585 1.000000 0.000000
0.506795 1.000000 0.000000
0.712854 1.000000 0.000000
1.000000 1.000000 0.000000
0.000000 0.000000 0.082500
0.287147 0.000000 0.082500
0.493205 0.000000 0.082500
0.626415 0.000000 0.082500
0.716361 0.000000 0.082500
0.782533 0.000000 0.082500
0.834151 0.000000 0.082500
0.874381 0.000000 0.082500
0.904824 0.000000 0.082500
0.932240 0.000000 0.082500
0.955906 0.000000 0.082500
0.978328 0.000000 0.082500
1.000000 0.000000 0.082500
0.000000 0.021672 0.082500
0.282955 0.027023 0.082500
0.486967 0.040931 0.082500
0.617793 0.063381 0.082500
0.706601 0.091980 0.082500
0.769556 0.122105 0.082500
0.819099 0.155661 0.082500
0.857160 0.189475 0.082500
0.888794 0.222861 0.082500
0.918185 0.249819 0.082500
0.945338 0.269364 0.082500
0.972978 0.282955 0.082500
1.000000 0.287147 0.082500
0.000000 0.044094 0.082500
0.269364 0.054662 0.082500
0.467603 0.080303 0.082500
0.593913 0.121838 0.082500
0.679098 0.172334 0.082500
0.738450 0.226221 0.082500
0.782896 0.285034 0.082500
0.819577 0.340982 0.082500
0.851119 0.395210 0.082500
0.884671 0.436830 0.082500
0.919697 0.467603 0.082500
0.959069 0.486967 0.082500
1.000000 0.493205 0.082500
0.000000 0.067760 0.082500
0.249819 0.081815 0.082500
0.436830 0.115329 0.082500
0.556059 0.171641 0.082500
0.635006 0.237363 0.082500
0.687699 0.305911 0.082500
0.722922 0.378160 0.082500
0.756119 0.443729 0.082500
0.786412 0.506137 0.082500
0.828359 0.556059 0.082500
0.878162 0.593913 0.082500
0.936620 0.617793 0.082500
1.000000 0.626415 0.082500
0.000000 0.095176 0.082500
0.222861 0.111206 0.082500
0.395210 0.148881 0.082500
0.506137 0.213588 0.082500
0.580474 0.289420 0.082500
0.624311 0.366998 0.082500
0.651895 0.445745 0.082500
0.680934 0.515999 0.082500
0.710580 0.580474 0.082500
0.762637 0.635006 0.082500
0.827666 0.679098 0.082500
0.908021 0.706601 0.082500
1.000000 0.716361 0.082500
0.000000 0.125619 0.082500
0.189475 0.142840 0.082500
0.340982 0.180423 0.082500
0.443729 0.243881 0.082500
0.515999 0.319066 0.082500
0.553415 0.397013 0.082500
0.577632 0.477038 0.082500
0.602987 0.553415 0.082500
0.633002 0.624311 0.082500
0.694089 0.687699 0.082500
0.773779 0.738450 0.082500
0.877895 0.769556 0.082500
1.000000 0.782533 0.082500
0.000000 0.165849 0.082500
0.155661 0.180901 0.082500
0.285034 0.217104 0.082500
0.378160 0.277078 0.082500
0.445745 0.348105 0.082500
0.477038 0.422368 0.082500
0.500000 0.500000 0.082500
0.522962 0.577632 0.082500
0.554255 0.651895 0.082500
0.621840 0.722922 0.082500
0.714966 0.782896 0.082500
0.844340 0.819099 0.082500
1.000000 0.834151 0.082500
0.000000 0.217467 0.082500
0.122105 0.230444 0.082500
0.226221 0.261550 0.082500
0.305911 0.312300 0.082500
0.366998 0.375689 0.082500
0.397013 0.446585 0.082500
0.422368 0.522962 0.082500
0.446585 0.602987 0.082500
0.484001 0.680934 0.082500
0.556271 0.756119 0.082500
0.659018 0.819577 0.082500
0.810525 0.857160 0.082500
1.000000 0.874381 0.082500
0.000000 0.283639 0.082500
0.091980 0.293399 0.082500
0.172334 0.320902 0.082500
0.237363 0.364994 0.082500
0.289420 0.419526 0.082500
0.319066 0.484001 0.082500
0.348105 0.554255 0.082500
0.375689 0.633002 0.082500
0.419526 0.710580 0.082500
0.493863 0.786412 0.082500
0.604790 0.851119 0.082500
0.777140 0.888794 0.082500
1.000000 0.904824 0.082500
0.000000 0.373585 0.082500
0.063381 0.382207 0.082500
0.121838 0.406087 0.082500
0.171641 0.443941 0.082500
0.213588 0.493863 0.082500
0.243881 0.556271 0.082500
0.277078 0.621840 0.082500
0.312300 0.694089 0.082500
0.364994 0.762637 0.082500
0.443941 0.828359 0.082500
0.563170 0.884671 0.082500
0.750182 0.918185 0.082500
1.000000 0.932240 0.082500
0.000000 0.506795 0.082500
0.040931 0.513033 0.082500
0.080303 0.532397 0.082500
0.115329 0.563170 0.082500
0.148881 0.604790 0.082500
0.180423 0.659018 0.082500
0.217104 0.714966 0.082500
0.261550 0.773779 0.082500
0.320902 0.827666 0.082500
0.406087 0.878162 0.082500
0.532397 0.919697 0.082500
0.730637 0.945338 0.082500
1.000000 0.955906 0.082500
0.000000 0.712854 0.082500
0.027022 0.717046 0.082500
0.054662 0.730637 0.082500
0.081815 0.750182 0.082500
0.111206 0.777140 0.082500
0.142840 0.810525 0.082500
0.180901 0.844340 0.082500
0.230444 0.877895 0.082500
0.293399 0.908021 0.082500
0.382207 0.936619 0.082500
0.513033 0.959069 0.082500
0.717046 0.972978 0.082500
1.000000 0.978328 0.082500
0.000000 1.000000 0.082500
0.021672 1.000000 0.082500
0.044094 1.000000 0.082500
0.067760 1.000000 0.082500
0.095176 1.000000 0.082500
0.125619 1.000000 0.082500
0.165849 1.000000 0.082500
0.217467 1.000000 0.082500
0.283639 1.000000 0.082500
0.373585 1.000000 0.082500
0.506795 1.000000 0.082500
0.712854 1.000000 0.082500
1.000000 1.000000 0.082500
0.000000 0.000000 0.165000
0.287147 0.000000 0.165000
0.493205 0.000000 0.165000
0.626415 0.000000 0.165000
0.716361 0.000000 0.165000
0.782533 0.000000 0.165000
0.834151 0.000000 0.165000
0.874381 0.000000 0.165000
0.904824 0.000000 0.165000
0.932240 0.000000 0.165000
0.955906 0.000000 0.165000
0.978328 0.000000 0.165000
1.000000 0.000000 0.165000
0.000000 0.021672 0.165000
0.282955 0.027023 0.165000
0.486967 0.040931 0.165000
0.617793 0.063381 0.165000
0.706601 0.091980 0.165000
0.769556 0.122105 0.165000
0.819099 0.155661 0.165000
0.857160 0.189475 0.165000
0.888794 0.222861 0.165000
0.918185 0.249819 0.165000
0.945338 0.269364 0.165000
0.972978 0.282955 0.165000
1.000000 0.287147 0.165000
0.000000 0.044094 0.165000
0.269364 0.054662 0.165000
[...]
POINT_DATA 845 
VECTORS pos float 
0.000000 0.000000 0.000000
0.287147 0.000000 0.000000
0.493205 0.000000 0.000000
0.626415 0.000000 0.000000
0.716361 0.000000 0.000000
0.782533 0.000000 0.000000
0.834151 0.000000 0.000000
0.874381 0.000000 0.000000
0.904824 0.000000 0.000000
0.932240 0.000000 0.000000
0.955906 0.000000 0.000000
0.978328 0.000000 0.000000
1.000000 0.000000 0.000000
0.000000 0.021672 0.000000
0.282955 0.027023 0.000000
0.486967 0.040931 0.000000
0.617793 0.063381 0.000000
0.706601 0.091980 0.000000
0.769556 0.122105 0.000000
0.819099 0.155661 0.000000
0.857160 0.189475 0.000000
0.888794 0.222861 0.000000
0.918185 0.249819 0.000000
0.945338 0.269364 0.000000
0.972978 0.282955 0.000000
1.000000 0.287147 0.000000
0.000000 0.044094 0.000000
0.269364 0.054662 0.000000
0.467603 0.080303 0.000000
0.593913 0.121838 0.000000
0.679098 0.172334 0.000000
0.738450 0.226221 0.000000
0.782896 0.285034 0.000000
0.819577 0.340982 0.000000
0.851119 0.395210 0.000000
0.884671 0.436830 0.000000
0.919697 0.467603 0.000000
0.959069 0.486967 0.000000
1.000000 0.493205 0.000000
0.000000 0.067760 0.000000
0.249819 0.081815 0.000000
0.436830 0.115329 0.000000
0.556059 0.171641 0.000000
0.635006 0.237363 0.000000
0.687699 0.305911 0.000000
0.722922 0.378160 0.000000
0.756119 0.443729 0.000000
0.786412 0.506137 0.000000
0.828359 0.556059 0.000000
0.878162 0.593913 0.000000
0.936620 0.617793 0.000000
1.000000 0.626415 0.000000
0.000000 0.095176 0.000000
0.222861 0.111206 0.000000
0.395210 0.148881 0.000000
0.506137 0.213588 0.000000
0.580474 0.289420 0.000000
0.624311 0.366998 0.000000
0.651895 0.445745 0.000000
0.680934 0.515999 0.000000
0.710580 0.580474 0.000000
0.762637 0.635006 0.000000
0.827666 0.679098 0.000000
0.908021 0.706601 0.000000
1.000000 0.716361 0.000000
0.000000 0.125619 0.000000
0.189475 0.142840 0.000000
0.340982 0.180423 0.000000
0.443729 0.243881 0.000000
0.515999 0.319066 0.000000
0.553415 0.397013 0.000000
0.577632 0.477038 0.000000
0.602987 0.553415 0.000000
0.633002 0.624311 0.000000
0.694089 0.687699 0.000000
0.773779 0.738450 0.000000
0.877895 0.769556 0.000000
1.000000 0.782533 0.000000
0.000000 0.165849 0.000000
0.155661 0.180901 0.000000
0.285034 0.217104 0.000000
0.378160 0.277078 0.000000
0.445745 0.348105 0.000000
0.477038 0.422368 0.000000
0.500000 0.500000 0.000000
0.522962 0.577632 0.000000
0.554255 0.651895 0.000000
0.621840 0.722922 0.000000
0.714966 0.782896 0.000000
0.844340 0.819099 0.000000
1.000000 0.834151 0.000000
0.000000 0.217467 0.000000
0.122105 0.230444 0.000000
0.226221 0.261550 0.000000
0.305911 0.312300 0.000000
0.366998 0.375689 0.000000
0.397013 0.446585 0.000000
0.422368 0.522962 0.000000
0.446585 0.602987 0.000000
0.484001 0.680934 0.000000
0.556271 0.756119 0.000000
0.659018 0.819577 0.000000
0.810525 0.857160 0.000000
1.000000 0.874381 0.000000
0.000000 0.283639 0.000000
0.091980 0.293399 0.000000
0.172334 0.320902 0.000000
0.237363 0.364994 0.000000
0.289420 0.419526 0.000000
0.319066 0.484001 0.000000
0.348105 0.554255 0.000000
0.375689 0.633002 0.000000
0.419526 0.710580 0.000000
0.493863 0.786412 0.000000
0.604790 0.851119 0.000000
0.777140 0.888794 0.000000
1.000000 0.904824 0.000000
0.000000 0.373585 0.000000
0.063381 0.382207 0.000000
0.121838 0.406087 0.000000
0.171641 0.443941 0.000000
0.213588 0.493863 0.000000
0.243881 0.556271 0.000000
0.277078 0.621840 0.000000
0.312300 0.694089 0.000000
0.364994 0.762637 0.000000
0.443941 0.828359 0.000000
0.563170 0.884671 0.000000
0.750182 0.918185 0.000000
1.000000 0.932240 0.000000
0.000000 0.506795 0.000000
0.040931 0.513033 0.000000
0.080303 0.532397 0.000000
0.115329 0.563170 0.000000
0.148881 0.604790 0.000000
0.180423 0.659018 0.000000
0.217104 0.714966 0.000000
0.261550 0.773779 0.000000
0.320902 0.827666 0.000000
0.406087 0.878162 0.000000
0.532397 0.919697 0.000000
0.730637 0.945338 0.000000
1.000000 0.955906 0.000000
0.000000 0.712854 0.000000
0.027022 0.717046 0.000000
0.054662 0.730637 0.000000
0.081815 0.750182 0.000000
0.111206 0.777140 0.000000
0.142840 0.810525 0.000000
0.180901 0.844340 0.000000
0.230444 0.877895 0.000000
0.293399 0.908021 0.000000
0.382207 0.936619 0.000000
0.513033 0.959069 0.000000
0.717046 0.972978 0.000000
1.000000 0.978328 0.000000
0.000000 1.000000 0.000000
0.021672 1.000000 0.000000
0.044094 1.000000 0.000000
0.067760 1.000000 0.000000
0.095176 1.000000 0.000000
0.125619 1.000000 0.000000
0.165849 1.000000 0.000000
0.217467 1.000000 0.000000
0.283639 1.000000 0.000000
0.373585 1.000000 0.000000
0.506795 1.000000 0.000000
0.712854 1.000000 0.000000
1.000000 1.000000 0.000000
0.000000 0.000000 0.082500
0.287147 0.000000 0.082500
0.493205 0.000000 0.082500
0.626415 0.000000 0.082500
0.716361 0.000000 0.082500
0.782533 0.000000 0.082500
0.834151 0.000000 0.082500
0.874381 0.000000 0.082500
0.904824 0.000000 0.082500
0.932240 0.000000 0.082500
0.955906 0.000000 0.082500
0.978328 0.000000 0.082500
1.000000 0.000000 0.082500
0.000000 0.021672 0.082500
0.282955 0.027023 0.082500
0.486967 0.040931 0.082500
0.617793 0.063381 0.082500
0.706601 0.091980 0.082500
0.769556 0.122105 0.082500
0.819099 0.155661 0.082500
0.857160 0.189475 0.082500
0.888794 0.222861 0.082500
0.918185 0.249819 0.082500
0.945338 0.269364 0.082500
0.972978 0.282955 0.082500
1.000000 0.287147 0.082500
0.000000 0.044094 0.082500
0.269364 0.054662 0.082500
0.467603 0.080303 0.082500
0.593913 0.121838 0.082500
0.679098 0.172334 0.082500
0.738450 0.226221 0.082500
0.782896 0.285034 0.082500
0.819577 0.340982 0.082500
0.851119 0.395210 0.082500
0.884671 0.436830 0.082500
0.919697 0.467603 0.082500
0.959069 0.486967 0.082500
1.000000 0.493205 0.082500
0.000000 0.067760 0.082500
0.249819 0.081815 0.082500
0.436830 0.115329 0.082500
0.556059 0.171641 0.082500
0.635006 0.237363 0.082500
0.687699 0.305911 0.082500
0.722922 0.378160 0.082500
0.756119 0.443729 0.082500
0.786412 0.506137 0.082500
0.828359 0.556059 0.082500
0.878162 0.593913 0.082500
0.936620 0.617793 0.082500
1.000000 0.626415 0.082500
0.000000 0.095176 0.082500
0.222861 0.111206 0.082500
0.395210 0.148881 0.082500
0.506137 0.213588 0.082500
0.580474 0.289420 0.082500
0.624311 0.366998 0.082500
0.651895 0.445745 0.082500
0.680934 0.515999 0.082500
0.710580 0.580474 0.082500
0.762637 0.635006 0.082500
0.827666 0.679098 0.082500
0.908021 0.706601 0.082500
1.000000 0.716361 0.082500
0.000000 0.125619 0.082500
0.189475 0.142840 0.082500
0.340982 0.180423 0.082500
0.443729 0.243881 0.082500
0.515999 0.319066 0.082500
0.553415 0.397013 0.082500
0.577632 0.477038 0.082500
0.602987 0.553415 0.082500
0.633002 0.624311 0.082500
0.694089 0.687699 0.082500
0.773779 0.738450 0.082500
0.877895 0.769556 0.082500
1.000000 0.782533 0.082500
0.000000 0.165849 0.082500
0.155661 0.180901 0.082500
0.285034 0.217104 0.082500
0.378160 0.277078 0.082500
0.445745 0.348105 0.082500
0.477038 0.422368 0.082500
0.500000 0.500000 0.082500
0.522962 0.577632 0.082500
0.554255 0.651895 0.082500
0.621840 0.722922 0.082500
0.714966 0.782896 0.082500
0.844340 0.819099 0.082500
1.000000 0.834151 0.082500
0.000000 0.217467 0.082500
0.122105 0.230444 0.082500
0.226221 0.261550 0.082500
0.305911 0.312300 0.082500
0.366998 0.375689 0.082500
0.397013 0.446585 0.082500
0.422368 0.522962 0.082500
0.446585 0.602987 0.082500
0.484001 0.680934 0.082500
0.556271 0.756119 0.082500
0.659018 0.819577 0.082500
0.810525 0.857160 0.082500
1.000000 0.874381 0.082500
0.000000 0.283639 0.082500
0.091980 0.293399 0.082500
0.172334 0.320902 0.082500
0.237363 0.364994 0.082500
0.289420 0.419526 0.082500
0.319066 0.484001 0.082500
0.348105 0.554255 0.082500
0.375689 0.633002 0.082500
0.419526 0.710580 0.082500
0.493863 0.786412 0.082500
0.604790 0.851119 0.082500
0.777140 0.888794 0.082500
1.000000 0.904824 0.082500
0.000000 0.373585 0.082500
0.063381 0.382207 0.082500
0.121838 0.406087 0.082500
0.171641 0.443941 0.082500
0.213588 0.493863 0.082500
0.243881 0.556271 0.082500
0.277078 0.621840 0.082500
0.312300 0.694089 0.082500
0.364994 0.762637 0.082500
0.443941 0.828359 0.082500
0.563170 0.884671 0.082500
0.750182 0.918185 0.082500
1.000000 0.932240 0.082500
0.000000 0.506795 0.082500
0.040931 0.513033 0.082500
0.080303 0.532397 0.082500
0.115329 0.563170 0.082500
0.148881 0.604790 0.082500
0.180423 0.659018 0.082500
0.217104 0.714966 0.082500
0.261550 0.773779 0.082500
0.320902 0.827666 0.082500
0.406087 0.878162 0.082500
0.532397 0.919697 0.082500
0.730637 0.945338 0.082500
1.000000 0.955906 0.082500
0.000000 0.712854 0.082500
0.027022 0.717046 0.082500
0.054662 0.730637 0.082500
0.081815 0.750182 0.082500
0.111206 0.777140 0.082500
0.142840 0.810525 0.082500
0.180901 0.844340 0.082500
0.230444 0.877895 0.082500
0.293399 0.908021 0.082500
0.382207 0.936619 0.082500
0.513033 0.959069 0.082500
0.717046 0.972978 0.082500
1.000000 0.978328 0.082500
0.000000 1.000000 0.082500
0.021672 1.000000 0.082500
0.044094 1.000000 0.082500
0.067760 1.000000 0.082500
0.095176 1.000000 0.082500
0.125619 1.000000 0.082500
0.165849 1.000000 0.082500
0.217467 1.000000 0.082500
0.283639 1.000000 0.082500
0.373585 1.000000 0.082500
0.506795 1.000000 0.082500
0.712854 1.000000 0.082500
1.000000 1.000000 0.082500
0.000000 0.000000 0.165000
0.287147 0.000000 0.165000
0.493205 0.000000 0.165000
0.626415 0.000000 0.165000
0.716361 0.000000 0.165000
0.782533 0.000000 0.165000
0.834151 0.000000 0.165000
0.874381 0.000000 0.165000
0.904824 0.000000 0.165000
0.932240 0.000000 0.165000
0.955906 0.000000 0.165000
0.978328 0.000000 0.165000
1.000000 0.000000 0.165000
0.000000 0.021672 0.165000
0.282955 0.027023 0.165000
0.486967 0.040931 0.165000
0.617793 0.063381 0.165000
0.706601 0.091980 0.165000
0.769556 0.122105 0.165000
0.819099 0.155661 0.165000
0.857160 0.189475 0.165000
0.888794 0.222861 0.165000
0.918185 0.249819 0.165000
0.945338 0.269364 0.165000
0.972978 0.282955 0.165000
1.000000 0.287147 0.165000
0.000000 0.044094 0.165000
0.269364 0.054662 0.165000
0.467603 0.080303 0.165000
0.593913 0.121838 0.165000
0.679098 0.172334 0.165000
0.738450 0.226221 0.165000
0.782896 0.285034 0.165000
0.819577 0.340982 0.165000
0.851119 0.395210 0.165000
0.884671 0.436830 0.165000
0.919697 0.467603 0.165000
0.959069 0.486967 0.165000
1.000000 0.493205 0.165000
0.000000 0.067760 0.165000
0.249819 0.081815 0.165000
0.436830 0.115329 0.165000
0.556059 0.171641 0.165000
0.635006 0.237363 0.165000
0.687699 0.305911 0.165000
0.722922 0.378160 0.165000
0.756119 0.443729 0.165000
0.786412 0.506137 0.165000
0.828359 0.556059 0.165000
0.878162 0.593913 0.165000
0.936620 0.617793 0.165000
1.000000 0.626415 0.165000
0.000000 0.095176 0.165000
0.222861 0.111206 0.165000
0.395210 0.148881 0.165000
0.506137 0.213588 0.165000
0.580474 0.289420 0.165000
0.624311 0.366998 0.165000
0.651895 0.445745 0.165000
0.680934 0.515999 0.165000
0.710580 0.580474 0.165000
0.762637 0.635006 0.165000
0.827666 0.679098 0.165000
0.908021 0.706601 0.165000
1.000000 0.716361 0.165000
0.000000 0.125619 0.165000
0.189475 0.142840 0.165000
0.340982 0.180423 0.165000
0.443729 0.243881 0.165000
0.515999 0.319066 0.165000
0.553415 0.397013 0.165000
0.577632 0.477038 0.165000
0.602987 0.553415 0.165000
0.633002 0.624311 0.165000
0.694089 0.687699 0.165000
0.773779 0.738450 0.165000
0.877895 0.769556 0.165000
1.000000 0.782533 0.165000
0.000000 0.165849 0.165000
0.155661 0.180901 0.165000
0.285034 0.217104 0.165000
0.378160 0.277078 0.165000
0.445745 0.348105 0.165000
0.477038 0.422368 0.165000
0.500000 0.500000 0.165000
0.522962 0.577632 0.165000
0.554255 0.651895 0.165000
0.621840 0.722922 0.165000
0.714966 0.782896 0.165000
0.844340 0.819099 0.165000
1.000000 0.834151 0.165000
0.000000 0.217467 0.165000
0.122105 0.230444 0.165000
0.226221 0.261550 0.165000
0.305911 0.312300 0.165000
0.366998 0.375689 0.165000
0.397013 0.446585 0.165000
0.422368 0.522962 0.165000
0.446585 0.602987 0.165000
0.484001 0.680934 0.165000
0.556271 0.756119 0.165000
0.659018 0.819577 0.165000
0.810525 0.857160 0.165000
1.000000 0.874381 0.165000
0.000000 0.283639 0.165000
0.091980 0.293399 0.165000
0.172334 0.320902 0.165000
0.237363 0.364994 0.165000
0.289420 0.419526 0.165000
0.319066 0.484001 0.165000
0.348105 0.554255 0.165000
0.375689 0.633002 0.165000
0.419526 0.710580 0.165000
0.493863 0.786412 0.165000
0.604790 0.851119 0.165000
0.777140 0.888794 0.165000
1.000000 0.904824 0.165000
0.000000 0.373585 0.165000
0.063381 0.382207 0.165000
0.121838 0.406087 0.165000
0.171641 0.443941 0.165000
0.213588 0.493863 0.165000
0.243881 0.556271 0.165000
0.277078 0.621840 0.165000
0.312300 0.694089 0.165000
0.364994 0.762637 0.165000
0.443941 0.828359 0.165000
0.563170 0.884671 0.165000
0.750182 0.918185 0.165000
1.000000 0.932240 0.165000
0.000000 0.506795 0.165000
0.040931 0.513033 0.165000
0.080303 0.532397 0.165000
0.115329 0.563170 0.165000
0.148881 0.604790 0.165000
0.180423 0.659018 0.165000
0.217104 0.714966 0.165000
0.261550 0.773779 0.165000
0.320902 0.827666 0.165000
0.406087 0.878162 0.165000
0.532397 0.919697 0.165000
0.730637 0.945338 0.165000
1.000000 0.955906 0.165000
0.000000 0.712854 0.165000
0.027022 0.717046 0.165000
0.054662 0.730637 0.165000
0.081815 0.750182 0.165000
0.111206 0.777140 0.165000
0.142840 0.810525 0.165000
0.180901 0.844340 0.165000
0.230444 0.877895 0.165000
0.293399 0.908021 0.165000
0.382207 0.936619 0.165000
0.513033 0.959069 0.165000
0.717046 0.972978 0.165000
1.000000 0.978328 0.165000
0.000000 1.000000 0.165000
0.021672 1.000000 0.165000
0.044094 1.000000 0.165000
0.067760 1.000000 0.165000
0.095176 1.000000 0.165000
0.125619 1.000000 0.165000
0.165849 1.000000 0.165000
0.217467 1.000000 0.165000
0.283639 1.000000 0.165000
0.373585 1.000000 0.165000
0.506795 1.000000 0.165000
0.712854 1.000000 0.165000
1.000000 1.000000 0.165000
0.000000 0.000000 0.247500
0.287147 0.000000 0.247500
0.493205 0.000000 0.247500
0.626415 0.000000 0.247500
0.716361 0.000000 0.247500
0.782533 0.000000 0.247500
0.834151 0.000000 0.247500
0.874381 0.000000 0.247500
0.904824 0.000000 0.247500
0.932240 0.000000 0.247500
0.955906 0.000000 0.247500
0.978328 0.000000 0.247500
1.000000 0.000000 0.247500
0.000000 0.021672 0.247500
0.282955 0.027023 0.247500
0.486967 0.040931 0.247500
0.617793 0.063381 0.247500
0.706601 0.091980 0.247500
0.769556 0.122105 0.247500
0.819099 0.155661 0.247500
0.857160 0.189475 0.247500
0.888794 0.222861 0.247500
0.918185 0.249819 0.247500
0.945338 0.269364 0.247500
0.972978 0.282955 0.247500
1.000000 0.287147 0.247500
0.000000 0.044094 0.247500
0.269364 0.054662 0.247500
0.467603 0.080303 0.247500
0.593913 0.121838 0.247500
0.679098 0.172334 0.247500
0.738450 0.226221 0.247500
0.782896 0.285034 0.247500
0.819577 0.340982 0.247500
0.851119 0.395210 0.247500
0.884671 0.436830 0.247500
0.919697 0.467603 0.247500
0.959069 0.486967 0.247500
1.000000 0.493205 0.247500
0.000000 0.067760 0.247500
0.249819 0.081815 0.247500
0.436830 0.115329 0.247500
0.556059 0.171641 0.247500
0.635006 0.237363 0.247500
0.687699 0.305911 0.247500
0.722922 0.378160 0.247500
0.756119 0.443729 0.247500
0.786412 0.506137 0.247500
0.828359 0.556059 0.247500
0.878162 0.593913 0.247500
0.936620 0.617793 0.247500
1.000000 0.626415 0.247500
0.000000 0.095176 0.247500
0.222861 0.111206 0.247500
0.395210 0.148881 0.247500
0.506137 0.213588 0.247500
0.580474 0.289420 0.247500
0.624311 0.366998 0.247500
0.651895 0.445745 0.247500
0.680934 0.515999 0.247500
0.710580 0.580474 0.247500
0.762637 0.635006 0.247500
0.827666 0.679098 0.247500
0.908021 0.706601 0.247500
1.000000 0.716361 0.247500
0.000000 0.125619 0.247500
0.189475 0.142840 0.247500
0.340982 0.180423 0.247500
0.443729 0.243881 0.247500
0.515999 0.319066 0.247500
0.553415 0.397013 0.247500
0.577632 0.477038 0.247500
0.602987 0.553415 0.247500
0.633002 0.624311 0.247500
0.694089 0.687699 0.247500
0.773779 0.738450 0.247500
0.877895 0.769556 0.247500
1.000000 0.782533 0.247500
0.000000 0.165849 0.247500
0.155661 0.180901 0.247500
0.285034 0.217104 0.247500
0.378160 0.277078 0.247500
0.445745 0.348105 0.247500
0.477038 0.422368 0.247500
0.500000 0.500000 0.247500
0.522962 0.577632 0.247500
0.554255 0.651895 0.247500
0.621840 0.722922 0.247500
0.714966 0.782896 0.247500
0.844340 0.819099 0.247500
1.000000 0.834151 0.247500
0.000000 0.217467 0.247500
0.122105 0.230444 0.247500
0.226221 0.261550 0.247500
0.305911 0.312300 0.247500
0.366998 0.375689 0.247500
0.397013 0.446585 0.247500
0.422368 0.522962 0.247500
0.446585 0.602987 0.247500
0.484001 0.680934 0.247500
0.556271 0.756119 0.247500
0.659018 0.819577 0.247500
0.810525 0.857160 0.247500
1.000000 0.874381 0.247500
0.000000 0.283639 0.247500
0.091980 0.293399 0.247500
0.172334 0.320902 0.247500
0.237363 0.364994 0.247500
0.289420 0.419526 0.247500
0.319066 0.484001 0.247500
0.348105 0.554255 0.247500
0.375689 0.633002 0.247500
0.419526 0.710580 0.247500
0.493863 0.786412 0.247500
0.604790 0.851119 0.247500
0.777140 0.888794 0.247500
1.000000 0.904824 0.247500
0.000000 0.373585 0.247500
0.063381 0.382207 0.247500
0.121838 0.406087 0.247500
0.171641 0.443941 0.247500
0.213588 0.493863 0.247500
0.243881 0.556271 0.247500
0.277078 0.621840 0.247500
0.312300 0.694089 0.247500
0.364994 0.762637 0.247500
0.443941 0.828359 0.247500
0.563170 0.884671 0.247500
0.750182 0.918185 0.247500
1.000000 0.932240 0.247500
0.000000 0.506795 0.247500
0.040931 0.513033 0.247500
0.080303 0.532397 0.247500
0.115329 0.563170 0.247500
0.148881 0.604790 0.247500
0.180423 0.659018 0.247500
0.217104 0.714966 0.247500
0.261550 0.773779 0.247500
0.320902 0.827666 0.247500
0.406087 0.878162 0.247500
0.532397 0.919697 0.247500
0.730637 0.945338 0.247500
1.000000 0.955906 0.247500
0.000000 0.712854 0.247500
0.027022 0.717046 0.247500
0.054662 0.730637 0.247500
0.081815 0.750182 0.247500
0.111206 0.777140 0.247500
0.142840 0.810525 0.247500
0.180901 0.844340 0.247500
0.230444 0.877895 0.247500
0.293399 0.908021 0.247500
0.382207 0.936619 0.247500
0.513033 0.959069 0.247500
0.717046 0.972978 0.247500
1.000000 0.978328 0.247500
0.000000 1.000000 0.247500
0.021672 1.000000 0.247500
0.044094 1.000000 0.247500
0.067760 1.000000 0.247500
0.095176 1.000000 0.247500
0.125619 1.000000 0.247500
0.165849 1.000000 0.247500
0.217467 1.000000 0.247500
0.283639 1.000000 0.247500
0.373585 1.000000 0.247500
0.506795 1.000000 0.247500
0.712854 1.000000 0.247500
1.000000 1.000000 0.247500
0.000000 0.000000 0.330000
0.287147 0.000000 0.330000
0.493205 0.000000 0.330000
0.626415 0.000000 0.330000
0.716361 0.000000 0.330000
0.782533 0.000000 0.330000
0.834151 0.000000 0.330000
0.874381 0.000000 0.330000
0.904824 0.000000 0.330000
0.932240 0.000000 0.330000
0.955906 0.000000 0.330000
0.978328 0.000000 0.330000
1.000000 0.000000 0.330000
0.000000 0.021672 0.330000
0.282955 0.027023 0.330000
0.486967 0.040931 0.330000
0.617793 0.063381 0.330000
0.706601 0.091980 0.330000
0.769556 0.122105 0.330000
0.819099 0.155661 0.330000
0.857160 0.189475 0.330000
0.888794 0.222861 0.330000
0.918185 0.249819 0.330000
0.945338 0.269364 0.330000
0.972978 0.282955 0.330000
1.000000 0.287147 0.330000
0.000000 0.044094 0.330000
0.269364 0.054662 0.330000
0.467603 0.080303 0.330000
0.593913 0.121838 0.330000
0.679098 0.172334 0.330000
0.738450 0.226221 0.330000
0.782896 0.285034 0.330000
0.819577 0.340982 0.330000
0.851119 0.395210 0.330000
0.884671 0.436830 0.330000
0.919697 0.467603 0.330000
0.959069 0.486967 0.330000
1.000000 0.493205 0.330000
0.000000 0.067760 0.330000
0.249819 0.081815 0.330000
0.436830 0.115329 0.330000
0.556059 0.171641 0.330000
0.635006 0.237363 0.330000
0.687699 0.305911 0.330000
0.722922 0.378160 0.330000
0.756119 0.443729 0.330000
0.786412 0.506137 0.330000
0.828359 0.556059 0.330000
0.878162 0.593913 0.330000
0.936620 0.617793 0.330000
1.000000 0.626415 0.330000
0.000000 0.095176 0.330000
0.222861 0.111206 0.330000
0.395210 0.148881 0.330000
0.506137 0.213588 0.330000
0.580474 0.289420 0.330000
0.624311 0.366998 0.330000
0.651895 0.445745 0.330000
0.680934 0.515999 0.330000
0.710580 0.580474 0.330000
0.762637 0.635006 0.330000
0.827666 0.679098 0.330000