# vtk DataFile Version 2.0
Mesh for Fierro
ASCII 
DATASET UNSTRUCTURED_GRID

POINTS 845 float
0.000000 0.000000 0.000000
0.131206 0.000000 0.000000
0.255794 0.000000 0.000000
0.372674 0.000000 0.000000
0.476463 0.000000 0.000000
0.565333 0.000000 0.000000
0.644401 0.000000 0.000000
0.714399 0.000000 0.000000
0.778532 0.000000 0.000000
0.839171 0.000000 0.000000
0.895120 0.000000 0.000000
0.949122 0.000000 0.000000
1.000000 0.000000 0.000000
0.000000 0.050878 0.000000
0.129855 0.052424 0.000000
0.253336 0.056233 0.000000
0.369026 0.062819 0.000000
0.472248 0.071167 0.000000
0.560474 0.080879 0.000000
0.639501 0.090903 0.000000
0.709508 0.100891 0.000000
0.773976 0.110842 0.000000
0.835235 0.119266 0.000000
0.892345 0.125664 0.000000
0.947576 0.129855 0.000000
1.000000 0.131206 0.000000
0.000000 0.104880 0.000000
0.125664 0.107655 0.000000
0.245359 0.114838 0.000000
0.358015 0.127287 0.000000
0.459650 0.143014 0.000000
0.546166 0.161237 0.000000
0.624479 0.180009 0.000000
0.695079 0.198790 0.000000
0.761140 0.217473 0.000000
0.824631 0.233171 0.000000
0.885162 0.245359 0.000000
0.943767 0.253336 0.000000
1.000000 0.255794 0.000000
0.000000 0.160829 0.000000
0.119266 0.164765 0.000000
0.233171 0.175369 0.000000
0.341051 0.192817 0.000000
0.439651 0.214754 0.000000
0.523670 0.240310 0.000000
0.601018 0.267060 0.000000
0.672131 0.293401 0.000000
0.739647 0.319254 0.000000
0.807183 0.341051 0.000000
0.872713 0.358015 0.000000
0.937181 0.369026 0.000000
1.000000 0.372674 0.000000
0.000000 0.221468 0.000000
0.110842 0.226024 0.000000
0.217473 0.238860 0.000000
0.319254 0.260353 0.000000
0.414643 0.287655 0.000000
0.494966 0.319197 0.000000
0.571094 0.352115 0.000000
0.643037 0.384323 0.000000
0.712345 0.414643 0.000000
0.785246 0.439651 0.000000
0.856986 0.459650 0.000000
0.928833 0.472248 0.000000
1.000000 0.476463 0.000000
0.000000 0.285601 0.000000
0.100891 0.290492 0.000000
0.198790 0.304921 0.000000
0.293401 0.327869 0.000000
0.384323 0.356963 0.000000
0.461610 0.390422 0.000000
0.536631 0.426036 0.000000
0.609578 0.461610 0.000000
0.680803 0.494966 0.000000
0.759690 0.523670 0.000000
0.838763 0.546166 0.000000
0.919121 0.560474 0.000000
1.000000 0.565333 0.000000
0.000000 0.355599 0.000000
0.090903 0.360499 0.000000
0.180009 0.375521 0.000000
0.267060 0.398982 0.000000
0.352115 0.428906 0.000000
0.426036 0.463369 0.000000
0.500000 0.500000 0.000000
0.573964 0.536631 0.000000
0.647885 0.571094 0.000000
0.732940 0.601018 0.000000
0.819991 0.624479 0.000000
0.909098 0.639501 0.000000
1.000000 0.644401 0.000000
0.000000 0.434667 0.000000
0.080879 0.439526 0.000000
0.161237 0.453834 0.000000
0.240310 0.476330 0.000000
0.319197 0.505034 0.000000
0.390422 0.538390 0.000000
0.463369 0.573964 0.000000
0.538390 0.609578 0.000000
0.615677 0.643037 0.000000
0.706599 0.672131 0.000000
0.801210 0.695079 0.000000
0.899109 0.709508 0.000000
1.000000 0.714399 0.000000
0.000000 0.523537 0.000000
0.071167 0.527752 0.000000
0.143014 0.540350 0.000000
0.214754 0.560349 0.000000
0.287655 0.585357 0.000000
0.356963 0.615677 0.000000
0.428906 0.647885 0.000000
0.505034 0.680803 0.000000
0.585357 0.712345 0.000000
0.680746 0.739647 0.000000
0.782527 0.761140 0.000000
0.889158 0.773976 0.000000
1.000000 0.778532 0.000000
0.000000 0.627326 0.000000
0.062819 0.630974 0.000000
0.127287 0.641985 0.000000
0.192817 0.658949 0.000000
0.260353 0.680746 0.000000
0.327869 0.706599 0.000000
0.398982 0.732940 0.000000
0.476330 0.759690 0.000000
0.560349 0.785246 0.000000
0.658949 0.807183 0.000000
0.766829 0.824631 0.000000
0.880735 0.835235 0.000000
1.000000 0.839171 0.000000
0.000000 0.744206 0.000000
0.056233 0.746664 0.000000
0.114838 0.754641 0.000000
0.175369 0.766829 0.000000
0.238860 0.782527 0.000000
0.304921 0.801210 0.000000
0.375521 0.819991 0.000000
0.453834 0.838763 0.000000
0.540350 0.856986 0.000000
0.641985 0.872713 0.000000
0.754641 0.885162 0.000000
0.874336 0.892345 0.000000
1.000000 0.895120 0.000000
0.000000 0.868794 0.000000
0.052424 0.870146 0.000000
0.107655 0.874336 0.000000
0.164765 0.880735 0.000000
0.226024 0.889158 0.000000
0.290492 0.899109 0.000000
0.360499 0.909098 0.000000
0.439526 0.919121 0.000000
0.527752 0.928833 0.000000
0.630974 0.937181 0.000000
0.746664 0.943767 0.000000
0.870146 0.947576 0.000000
1.000000 0.949122 0.000000
0.000000 1.000000 0.000000
0.050878 1.000000 0.000000
0.104880 1.000000 0.000000
0.160829 1.000000 0.000000
0.221468 1.000000 0.000000
0.285601 1.000000 0.000000
0.355599 1.000000 0.000000
0.434667 1.000000 0.000000
0.523537 1.000000 0.000000
0.627326 1.000000 0.000000
0.744206 1.000000 0.000000
0.868794 1.000000 0.000000
1.000000 1.000000 0.000000
0.000000 0.000000 0.082500
0.131206 0.000000 0.082500
0.255794 0.000000 0.082500
0.372674 0.000000 0.082500
0.476463 0.000000 0.082500
0.565333 0.000000 0.082500
0.644401 0.000000 0.082500
0.714399 0.000000 0.082500
0.778532 0.000000 0.082500
0.839171 0.000000 0.082500
0.895120 0.000000 0.082500
0.949122 0.000000 0.082500
1.000000 0.000000 0.082500
0.000000 0.050878 0.082500
0.129855 0.052424 0.082500
0.253336 0.056233 0.082500
0.369026 0.062819 0.082500
0.472248 0.071167 0.082500
0.560474 0.080879 0.082500
0.639501 0.090903 0.082500
0.709508 0.100891 0.082500
0.773976 0.110842 0.082500
0.835235 0.119266 0.082500
0.892345 0.125664 0.082500
0.947576 0.129855 0.082500
1.000000 0.131206 0.082500
0.000000 0.104880 0.082500
0.125664 0.107655 0.082500
0.245359 0.114838 0.082500
0.358015 0.127287 0.082500
0.459650 0.143014 0.082500
0.546166 0.161237 0.082500
0.624479 0.180009 0.082500
0.695079 0.198790 0.082500
0.761140 0.217473 0.082500
0.824631 0.233171 0.082500
0.885162 0.245359 0.082500
0.943767 0.253336 0.082500
1.000000 0.255794 0.082500
0.000000 0.160829 0.082500
0.119266 0.164765 0.082500
0.233171 0.175369 0.082500
0.341051 0.192817 0.082500
0.439651 0.214754 0.082500
0.523670 0.240310 0.082500
0.601018 0.267060 0.082500
0.672131 0.293401 0.082500
0.739647 0.319254 0.082500
0.807183 0.341051 0.082500
0.872713 0.358015 0.082500
0.937181 0.369026 0.082500
1.000000 0.372674 0.082500
0.000000 0.221468 0.082500
0.110842 0.226024 0.082500
0.217473 0.238860 0.082500
0.319254 0.260353 0.082500
0.414643 0.287655 0.082500
0.494966 0.319197 0.082500
0.571094 0.352115 0.082500
0.643037 0.384323 0.082500
0.712345 0.414643 0.082500
0.785246 0.439651 0.082500
0.856986 0.459650 0.082500
0.928833 0.472248 0.082500
1.000000 0.476463 0.082500
0.000000 0.285601 0.082500
0.100891 0.290492 0.082500
0.198790 0.304921 0.082500
0.293401 0.327869 0.082500
0.384323 0.356963 0.082500
0.461610 0.390422 0.082500
0.536631 0.426036 0.082500
0.609578 0.461610 0.082500
0.680803 0.494966 0.082500
0.759690 0.523670 0.082500
0.838763 0.546166 0.082500
0.919121 0.560474 0.082500
1.000000 0.565333 0.082500
0.000000 0.355599 0.082500
0.090903 0.360499 0.082500
0.180009 0.375521 0.082500
0.267060 0.398982 0.082500
0.352115 0.428906 0.082500
0.426036 0.463369 0.082500
0.500000 0.500000 0.082500
0.573964 0.536631 0.082500
0.647885 0.571094 0.082500
0.732940 0.601018 0.082500
0.819991 0.624479 0.082500
0.909098 0.639501 0.082500
1.000000 0.644401 0.082500
0.000000 0.434667 0.082500
0.080879 0.439526 0.082500
0.161237 0.453834 0.082500
0.240310 0.476330 0.082500
0.319197 0.505034 0.082500
0.390422 0.538390 0.082500
0.463369 0.573964 0.082500
0.538390 0.609578 0.082500
0.615677 0.643037 0.082500
0.706599 0.672131 0.082500
0.801210 0.695079 0.082500
0.899109 0.709508 0.082500
1.000000 0.714399 0.082500
0.000000 0.523537 0.082500
0.071167 0.527752 0.082500
0.143014 0.540350 0.082500
0.214754 0.560349 0.082500
0.287655 0.585357 0.082500
0.356963 0.615677 0.082500
0.428906 0.647885 0.082500
0.505034 0.680803 0.082500
0.585357 0.712345 0.082500
0.680746 0.739647 0.082500
0.782527 0.761140 0.082500
0.889158 0.773976 0.082500
1.000000 0.778532 0.082500
0.000000 0.627326 0.082500
0.062819 0.630974 0.082500
0.127287 0.641985 0.082500
0.192817 0.658949 0.082500
0.260353 0.680746 0.082500
0.327869 0.706599 0.082500
0.398982 0.732940 0.082500
0.476330 0.759690 0.082500
0.560349 0.785246 0.082500
0.658949 0.807183 0.082500
0.766829 0.824631 0.082500
0.880735 0.835235 0.082500
1.000000 0.839171 0.082500
0.000000 0.744206 0.082500
0.056233 0.746664 0.082500
0.114838 0.754641 0.082500
0.175369 0.766829 0.082500
0.238860 0.782527 0.082500
0.304921 0.801210 0.082500
0.375521 0.819991 0.082500
0.453834 0.838763 0.082500
0.540350 0.856986 0.082500
0.641985 0.872713 0.082500
0.754641 0.885162 0.082500
0.874336 0.892345 0.082500
1.000000 0.895120 0.082500
0.000000 0.868794 0.082500
0.052424 0.870146 0.082500
0.107655 0.874336 0.082500
0.164765 0.880735 0.082500
0.226024 0.889158 0.082500
0.290492 0.899109 0.082500
0.360499 0.909098 0.082500
0.439526 0.919121 0.082500
0.527752 0.928833 0.082500
0.630974 0.937181 0.082500
0.746664 0.943767 0.082500
0.870146 0.947576 0.082500
1.000000 0.949122 0.082500
0.000000 1.000000 0.082500
0.050878 1.000000 0.082500
0.104880 1.000000 0.082500
0.160829 1.000000 0.082500
0.221468 1.000000 0.082500
0.285601 1.000000 0.082500
0.355599 1.000000 0.082500
0.434667 1.000000 0.082500
0.523537 1.000000 0.082500
0.627326 1.000000 0.082500
0.744206 1.000000 0.082500
0.868794 1.000000 0.082500
1.000000 1.000000 0.082500
0.000000 0.000000 0.165000
0.131206 0.000000 0.165000
0.255794 0.000000 0.165000
0.372674 0.000000 0.165000
0.476463 0.000000 0.165000
0.565333 0.000000 0.165000
0.644401 0.000000 0.165000
0.714399 0.000000 0.165000
0.778532 0.000000 0.165000
0.839171 0.000000 0.165000
0.895120 0.000000 0.165000
0.949122 0.000000 0.165000
1.000000 0.000000 0.165000
0.000000 0.050878 0.165000
0.129855 0.052424 0.165000
0.253336 0.056233 0.165000
0.369026 0.062819 0.165000
0.472248 0.071167 0.165000
0.560474 0.080879 0.165000
0.639501 0.090903 0.165000
0.709508 0.100891 0.165000
0.773976 0.110842 0.165000
0.835235 0.119266 0.165000
0.892345 0.125664 0.165000
0.947576 0.129855 0.165000
1.000000 0.131206 0.165000
0.000000 0.104880 0.165000
0.125664 0.107655 0.165000
[...]
POINT_DATA 845 
VECTORS pos float 
0.000000 0.000000 0.000000
0.131206 0.000000 0.000000
0.255794 0.000000 0.000000
0.372674 0.000000 0.000000
0.476463 0.000000 0.000000
0.565333 0.000000 0.000000
0.644401 0.000000 0.000000
0.714399 0.000000 0.000000
0.778532 0.000000 0.000000
0.839171 0.000000 0.000000
0.895120 0.000000 0.000000
0.949122 0.000000 0.000000
1.000000 0.000000 0.000000
0.000000 0.050878 0.000000
0.129855 0.052424 0.000000
0.253336 0.056233 0.000000
0.369026 0.062819 0.000000
0.472248 0.071167 0.000000
0.560474 0.080879 0.000000
0.639501 0.090903 0.000000
0.709508 0.100891 0.000000
0.773976 0.110842 0.000000
0.835235 0.119266 0.000000
0.892345 0.125664 0.000000
0.947576 0.129855 0.000000
1.000000 0.131206 0.000000
0.000000 0.104880 0.000000
0.125664 0.107655 0.000000
0.245359 0.114838 0.000000
0.358015 0.127287 0.000000
0.459650 0.143014 0.000000
0.546166 0.161237 0.000000
0.624479 0.180009 0.000000
0.695079 0.198790 0.000000
0.761140 0.217473 0.000000
0.824631 0.233171 0.000000
0.885162 0.245359 0.000000
0.943767 0.253336 0.000000
1.000000 0.255794 0.000000
0.000000 0.160829 0.000000
0.119266 0.164765 0.000000
0.233171 0.175369 0.000000
0.341051 0.192817 0.000000
0.439651 0.214754 0.000000
0.523670 0.240310 0.000000
0.601018 0.267060 0.000000
0.672131 0.293401 0.000000
0.739647 0.319254 0.000000
0.807183 0.341051 0.000000
0.872713 0.358015 0.000000
0.937181 0.369026 0.000000
1.000000 0.372674 0.000000
0.000000 0.221468 0.000000
0.110842 0.226024 0.000000
0.217473 0.238860 0.000000
0.319254 0.260353 0.000000
0.414643 0.287655 0.000000
0.494966 0.319197 0.000000
0.571094 0.352115 0.000000
0.643037 0.384323 0.000000
0.712345 0.414643 0.000000
0.785246 0.439651 0.000000
0.856986 0.459650 0.000000
0.928833 0.472248 0.000000
1.000000 0.476463 0.000000
0.000000 0.285601 0.000000
0.100891 0.290492 0.000000
0.198790 0.304921 0.000000
0.293401 0.327869 0.000000
0.384323 0.356963 0.000000
0.461610 0.390422 0.000000
0.536631 0.426036 0.000000
0.609578 0.461610 0.000000
0.680803 0.494966 0.000000
0.759690 0.523670 0.000000
0.838763 0.546166 0.000000
0.919121 0.560474 0.000000
1.000000 0.565333 0.000000
0.000000 0.355599 0.000000
0.090903 0.360499 0.000000
0.180009 0.375521 0.000000
0.267060 0.398982 0.000000
0.352115 0.428906 0.000000
0.426036 0.463369 0.000000
0.500000 0.500000 0.000000
0.573964 0.536631 0.000000
0.647885 0.571094 0.000000
0.732940 0.601018 0.000000
0.819991 0.624479 0.000000
0.909098 0.639501 0.000000
1.000000 0.644401 0.000000
0.000000 0.434667 0.000000
0.080879 0.439526 0.000000
0.161237 0.453834 0.000000
0.240310 0.476330 0.000000
0.319197 0.505034 0.000000
0.390422 0.538390 0.000000
0.463369 0.573964 0.000000
0.538390 0.609578 0.000000
0.615677 0.643037 0.000000
0.706599 0.672131 0.000000
0.801210 0.695079 0.000000
0.899109 0.709508 0.000000
1.000000 0.714399 0.000000
0.000000 0.523537 0.000000
0.071167 0.527752 0.000000
0.143014 0.540350 0.000000
0.214754 0.560349 0.000000
0.287655 0.585357 0.000000
0.356963 0.615677 0.000000
0.428906 0.647885 0.000000
0.505034 0.680803 0.000000
0.585357 0.712345 0.000000
0.680746 0.739647 0.000000
0.782527 0.761140 0.000000
0.889158 0.773976 0.000000
1.000000 0.778532 0.000000
0.000000 0.627326 0.000000
0.062819 0.630974 0.000000
0.127287 0.641985 0.000000
0.192817 0.658949 0.000000
0.260353 0.680746 0.000000
0.327869 0.706599 0.000000
0.398982 0.732940 0.000000
0.476330 0.759690 0.000000
0.560349 0.785246 0.000000
0.658949 0.807183 0.000000
0.766829 0.824631 0.000000
0.880735 0.835235 0.000000
1.000000 0.839171 0.000000
0.000000 0.744206 0.000000
0.056233 0.746664 0.000000
0.114838 0.754641 0.000000
0.175369 0.766829 0.000000
0.238860 0.782527 0.000000
0.304921 0.801210 0.000000
0.375521 0.819991 0.000000
0.453834 0.838763 0.000000
0.540350 0.856986 0.000000
0.641985 0.872713 0.000000
0.754641 0.885162 0.000000
0.874336 0.892345 0.000000
1.000000 0.895120 0.000000
0.000000 0.868794 0.000000
0.052424 0.870146 0.000000
0.107655 0.874336 0.000000
0.164765 0.880735 0.000000
0.226024 0.889158 0.000000
0.290492 0.899109 0.000000
0.360499 0.909098 0.000000
0.439526 0.919121 0.000000
0.527752 0.928833 0.000000
0.630974 0.937181 0.000000
0.746664 0.943767 0.000000
0.870146 0.947576 0.000000
1.000000 0.949122 0.000000
0.000000 1.000000 0.000000
0.050878 1.000000 0.000000
0.104880 1.000000 0.000000
0.160829 1.000000 0.000000
0.221468 1.000000 0.000000
0.285601 1.000000 0.000000
0.355599 1.000000 0.000000
0.434667 1.000000 0.000000
0.523537 1.000000 0.000000
0.627326 1.000000 0.000000
0.744206 1.000000 0.000000
0.868794 1.000000 0.000000
1.000000 1.000000 0.000000
0.000000 0.000000 0.082500
0.131206 0.000000 0.082500
0.255794 0.000000 0.082500
0.372674 0.000000 0.082500
0.476463 0.000000 0.082500
0.565333 0.000000 0.082500
0.644401 0.000000 0.082500
0.714399 0.000000 0.082500
0.778532 0.000000 0.082500
0.839171 0.000000 0.082500
0.895120 0.000000 0.082500
0.949122 0.000000 0.082500
1.000000 0.000000 0.082500
0.000000 0.050878 0.082500
0.129855 0.052424 0.082500
0.253336 0.056233 0.082500
0.369026 0.062819 0.082500
0.472248 0.071167 0.082500
0.560474 0.080879 0.082500
0.639501 0.090903 0.082500
0.709508 0.100891 0.082500
0.773976 0.110842 0.082500
0.835235 0.119266 0.082500
0.892345 0.125664 0.082500
0.947576 0.129855 0.082500
1.000000 0.131206 0.082500
0.000000 0.104880 0.082500
0.125664 0.107655 0.082500
0.245359 0.114838 0.082500
0.358015 0.127287 0.082500
0.459650 0.143014 0.082500
0.546166 0.161237 0.082500
0.624479 0.180009 0.082500
0.695079 0.198790 0.082500
0.761140 0.217473 0.082500
0.824631 0.233171 0.082500
0.885162 0.245359 0.082500
0.943767 0.253336 0.082500
1.000000 0.255794 0.082500
0.000000 0.160829 0.082500
0.119266 0.164765 0.082500
0.233171 0.175369 0.082500
0.341051 0.192817 0.082500
0.439651 0.214754 0.082500
0.523670 0.240310 0.082500
0.601018 0.267060 0.082500
0.672131 0.293401 0.082500
0.739647 0.319254 0.082500
0.807183 0.341051 0.082500
0.872713 0.358015 0.082500
0.937181 0.369026 0.082500
1.000000 0.372674 0.082500
0.000000 0.221468 0.082500
0.110842 0.226024 0.082500
0.217473 0.238860 0.082500
0.319254 0.260353 0.082500
0.414643 0.287655 0.082500
0.494966 0.319197 0.082500
0.571094 0.352115 0.082500
0.643037 0.384323 0.082500
0.712345 0.414643 0.082500
0.785246 0.439651 0.082500
0.856986 0.459650 0.082500
0.928833 0.472248 0.082500
1.000000 0.476463 0.082500
0.000000 0.285601 0.082500
0.100891 0.290492 0.082500
0.198790 0.304921 0.082500
0.293401 0.327869 0.082500
0.384323 0.356963 0.082500
0.461610 0.390422 0.082500
0.536631 0.426036 0.082500
0.609578 0.461610 0.082500
0.680803 0.494966 0.082500
0.759690 0.523670 0.082500
0.838763 0.546166 0.082500
0.919121 0.560474 0.082500
1.000000 0.565333 0.082500
0.000000 0.355599 0.082500
0.090903 0.360499 0.082500
0.180009 0.375521 0.082500
0.267060 0.398982 0.082500
0.352115 0.428906 0.082500
0.426036 0.463369 0.082500
0.500000 0.500000 0.082500
0.573964 0.536631 0.082500
0.647885 0.571094 0.082500
0.732940 0.601018 0.082500
0.819991 0.624479 0.082500
0.909098 0.639501 0.082500
1.000000 0.644401 0.082500
0.000000 0.434667 0.082500
0.080879 0.439526 0.082500
0.161237 0.453834 0.082500
0.240310 0.476330 0.082500
0.319197 0.505034 0.082500
0.390422 0.538390 0.082500
0.463369 0.573964 0.082500
0.538390 0.609578 0.082500
0.615677 0.643037 0.082500
0.706599 0.672131 0.082500
0.801210 0.695079 0.082500
0.899109 0.709508 0.082500
1.000000 0.714399 0.082500
0.000000 0.523537 0.082500
0.071167 0.527752 0.082500
0.143014 0.540350 0.082500
0.214754 0.560349 0.082500
0.287655 0.585357 0.082500
0.356963 0.615677 0.082500
0.428906 0.647885 0.082500
0.505034 0.680803 0.082500
0.585357 0.712345 0.082500
0.680746 0.739647 0.082500
0.782527 0.761140 0.082500
0.889158 0.773976 0.082500
1.000000 0.778532 0.082500
0.000000 0.627326 0.082500
0.062819 0.630974 0.082500
0.127287 0.641985 0.082500
0.192817 0.658949 0.082500
0.260353 0.680746 0.082500
0.327869 0.706599 0.082500
0.398982 0.732940 0.082500
0.476330 0.759690 0.082500
0.560349 0.785246 0.082500
0.658949 0.807183 0.082500
0.766829 0.824631 0.082500
0.880735 0.835235 0.082500
1.000000 0.839171 0.082500
0.000000 0.744206 0.082500
0.056233 0.746664 0.082500
0.114838 0.754641 0.082500
0.175369 0.766829 0.082500
0.238860 0.782527 0.082500
0.304921 0.801210 0.082500
0.375521 0.819991 0.082500
0.453834 0.838763 0.082500
0.540350 0.856986 0.082500
0.641985 0.872713 0.082500
0.754641 0.885162 0.082500
0.874336 0.892345 0.082500
1.000000 0.895120 0.082500
0.000000 0.868794 0.082500
0.052424 0.870146 0.082500
0.107655 0.874336 0.082500
0.164765 0.880735 0.082500
0.226024 0.889158 0.082500
0.290492 0.899109 0.082500
0.360499 0.909098 0.082500
0.439526 0.919121 0.082500
0.527752 0.928833 0.082500
0.630974 0.937181 0.082500
0.746664 0.943767 0.082500
0.870146 0.947576 0.082500
1.000000 0.949122 0.082500
0.000000 1.000000 0.082500
0.050878 1.000000 0.082500
0.104880 1.000000 0.082500
0.160829 1.000000 0.082500
0.221468 1.000000 0.082500
0.285601 1.000000 0.082500
0.355599 1.000000 0.082500
0.434667 1.000000 0.082500
0.523537 1.000000 0.082500
0.627326 1.000000 0.082500
0.744206 1.000000 0.082500
0.868794 1.000000 0.082500
1.000000 1.000000 0.082500
0.000000 0.000000 0.165000
0.131206 0.000000 0.165000
0.255794 0.000000 0.165000
0.372674 0.000000 0.165000
0.476463 0.000000 0.165000
0.565333 0.000000 0.165000
0.644401 0.000000 0.165000
0.714399 0.000000 0.165000
0.778532 0.000000 0.165000
0.839171 0.000000 0.165000
0.895120 0.000000 0.165000
0.949122 0.000000 0.165000
1.000000 0.000000 0.165000
0.000000 0.050878 0.165000
0.129855 0.052424 0.165000
0.253336 0.056233 0.165000
0.369026 0.062819 0.165000
0.472248 0.071167 0.165000
0.560474 0.080879 0.165000
0.639501 0.090903 0.165000
0.709508 0.100891 0.165000
0.773976 0.110842 0.165000
0.835235 0.119266 0.165000
0.892345 0.125664 0.165000
0.947576 0.129855 0.165000
1.000000 0.131206 0.165000
0.000000 0.104880 0.165000
0.125664 0.107655 0.165000
0.245359 0.114838 0.165000
0.358015 0.127287 0.165000
0.459650 0.143014 0.165000
0.546166 0.161237 0.165000
0.624479 0.180009 0.165000
0.695079 0.198790 0.165000
0.761140 0.217473 0.165000
0.824631 0.233171 0.165000
0.885162 0.245359 0.165000
0.943767 0.253336 0.165000
1.000000 0.255794 0.165000
0.000000 0.160829 0.165000
0.119266 0.164765 0.165000
0.233171 0.175369 0.165000
0.341051 0.192817 0.165000
0.439651 0.214754 0.165000
0.523670 0.240310 0.165000
0.601018 0.267060 0.165000
0.672131 0.293401 0.165000
0.739647 0.319254 0.165000
0.807183 0.341051 0.165000
0.872713 0.358015 0.165000
0.937181 0.369026 0.165000
1.000000 0.372674 0.165000
0.000000 0.221468 0.165000
0.110842 0.226024 0.165000
0.217473 0.238860 0.165000
0.319254 0.260353 0.165000
0.414643 0.287655 0.165000
0.494966 0.319197 0.165000
0.571094 0.352115 0.165000
0.643037 0.384323 0.165000
0.712345 0.414643 0.165000
0.785246 0.439651 0.165000
0.856986 0.459650 0.165000
0.928833 0.472248 0.165000
1.000000 0.476463 0.165000
0.000000 0.285601 0.165000
0.100891 0.290492 0.165000
0.198790 0.304921 0.165000
0.293401 0.327869 0.165000
0.384323 0.356963 0.165000
0.461610 0.390422 0.165000
0.536631 0.426036 0.165000
0.609578 0.461610 0.165000
0.680803 0.494966 0.165000
0.759690 0.523670 0.165000
0.838763 0.546166 0.165000
0.919121 0.560474 0.165000
1.000000 0.565333 0.165000
0.000000 0.355599 0.165000
0.090903 0.360499 0.165000
0.180009 0.375521 0.165000
0.267060 0.398982 0.165000
0.352115 0.428906 0.165000
0.426036 0.463369 0.165000
0.500000 0.500000 0.165000
0.573964 0.536631 0.165000
0.647885 0.571094 0.165000
0.732940 0.601018 0.165000
0.819991 0.624479 0.165000
0.909098 0.639501 0.165000
1.000000 0.644401 0.165000
0.000000 0.434667 0.165000
0.080879 0.439526 0.165000
0.161237 0.453834 0.165000
0.240310 0.476330 0.165000
0.319197 0.505034 0.165000
0.390422 0.538390 0.165000
0.463369 0.573964 0.165000
0.538390 0.609578 0.165000
0.615677 0.643037 0.165000
0.706599 0.672131 0.165000
0.801210 0.695079 0.165000
0.899109 0.709508 0.165000
1.000000 0.714399 0.165000
0.000000 0.523537 0.165000
0.071167 0.527752 0.165000
0.143014 0.540350 0.165000
0.214754 0.560349 0.165000
0.287655 0.585357 0.165000
0.356963 0.615677 0.165000
0.428906 0.647885 0.165000
0.505034 0.680803 0.165000
0.585357 0.712345 0.165000
0.680746 0.739647 0.165000
0.782527 0.761140 0.165000
0.889158 0.773976 0.165000
1.000000 0.778532 0.165000
0.000000 0.627326 0.165000
0.062819 0.630974 0.165000
0.127287 0.641985 0.165000
0.192817 0.658949 0.165000
0.260353 0.680746 0.165000
0.327869 0.706599 0.165000
0.398982 0.732940 0.165000
0.476330 0.759690 0.165000
0.560349 0.785246 0.165000
0.658949 0.807183 0.165000
0.766829 0.824631 0.165000
0.880735 0.835235 0.165000
1.000000 0.839171 0.165000
0.000000 0.744206 0.165000
0.056233 0.746664 0.165000
0.114838 0.754641 0.165000
0.175369 0.766829 0.165000
0.238860 0.782527 0.165000
0.304921 0.801210 0.165000
0.375521 0.819991 0.165000
0.453834 0.838763 0.165000
0.540350 0.856986 0.165000
0.641985 0.872713 0.165000
0.754641 0.885162 0.165000
0.874336 0.892345 0.165000
1.000000 0.895120 0.165000
0.000000 0.868794 0.165000
0.052424 0.870146 0.165000
0.107655 0.874336 0.165000
0.164765 0.880735 0.165000
0.226024 0.889158 0.165000
0.290492 0.899109 0.165000
0.360499 0.909098 0.165000
0.439526 0.919121 0.165000
0.527752 0.928833 0.165000
0.630974 0.937181 0.165000
0.746664 0.943767 0.165000
0.870146 0.947576 0.165000
1.000000 0.949122 0.165000
0.000000 1.000000 0.165000
0.050878 1.000000 0.165000
0.104880 1.000000 0.165000
0.160829 1.000000 0.165000
0.221468 1.000000 0.165000
0.285601 1.000000 0.165000
0.355599 1.000000 0.165000
0.434667 1.000000 0.165000
0.523537 1.000000 0.165000
0.627326 1.000000 0.165000
0.744206 1.000000 0.165000
0.868794 1.000000 0.165000
1.000000 1.000000 0.165000
0.000000 0.000000 0.247500
0.131206 0.000000 0.247500
0.255794 0.000000 0.247500
0.372674 0.000000 0.247500
0.476463 0.000000 0.247500
0.565333 0.000000 0.247500
0.644401 0.000000 0.247500
0.714399 0.000000 0.247500
0.778532 0.000000 0.247500
0.839171 0.000000 0.247500
0.895120 0.000000 0.247500
0.949122 0.000000 0.247500
1.000000 0.000000 0.247500
0.000000 0.050878 0.247500
0.129855 0.052424 0.247500
0.253336 0.056233 0.247500
0.369026 0.062819 0.247500
0.472248 0.071167 0.247500
0.560474 0.080879 0.247500
0.639501 0.090903 0.247500
0.709508 0.100891 0.247500
0.773976 0.110842 0.247500
0.835235 0.119266 0.247500
0.892345 0.125664 0.247500
0.947576 0.129855 0.247500
1.000000 0.131206 0.247500
0.000000 0.104880 0.247500
0.125664 0.107655 0.247500
0.245359 0.114838 0.247500
0.358015 0.127287 0.247500
0.459650 0.143014 0.247500
0.546166 0.161237 0.247500
0.624479 0.180009 0.247500
0.695079 0.198790 0.247500
0.761140 0.217473 0.247500
0.824631 0.233171 0.247500
0.885162 0.245359 0.247500
0.943767 0.253336 0.247500
1.000000 0.255794 0.247500
0.000000 0.160829 0.247500
0.119266 0.164765 0.247500
0.233171 0.175369 0.247500
0.341051 0.192817 0.247500
0.439651 0.214754 0.247500
0.523670 0.240310 0.247500
0.601018 0.267060 0.247500
0.672131 0.293401 0.247500
0.739647 0.319254 0.247500
0.807183 0.341051 0.247500
0.872713 0.358015 0.247500
0.937181 0.369026 0.247500
1.000000 0.372674 0.247500
0.000000 0.221468 0.247500
0.110842 0.226024 0.247500
0.217473 0.238860 0.247500
0.319254 0.260353 0.247500
0.414643 0.287655 0.247500
0.494966 0.319197 0.247500
0.571094 0.352115 0.247500
0.643037 0.384323 0.247500
0.712345 0.414643 0.247500
0.785246 0.439651 0.247500
0.856986 0.459650 0.247500
0.928833 0.472248 0.247500
1.000000 0.476463 0.247500
0.000000 0.285601 0.247500
0.100891 0.290492 0.247500
0.198790 0.304921 0.247500
0.293401 0.327869 0.247500
0.384323 0.356963 0.247500
0.461610 0.390422 0.247500
0.536631 0.426036 0.247500
0.609578 0.461610 0.247500
0.680803 0.494966 0.247500
0.759690 0.523670 0.247500
0.838763 0.546166 0.247500
0.919121 0.560474 0.247500
1.000000 0.565333 0.247500
0.000000 0.355599 0.247500
0.090903 0.360499 0.247500
0.180009 0.375521 0.247500
0.267060 0.398982 0.247500
0.352115 0.428906 0.247500
0.426036 0.463369 0.247500
0.500000 0.500000 0.247500
0.573964 0.536631 0.247500
0.647885 0.571094 0.247500
0.732940 0.601018 0.247500
0.819991 0.624479 0.247500
0.909098 0.639501 0.247500
1.000000 0.644401 0.247500
0.000000 0.434667 0.247500
0.080879 0.439526 0.247500
0.161237 0.453834 0.247500
0.240310 0.476330 0.247500
0.319197 0.505034 0.247500
0.390422 0.538390 0.247500
0.463369 0.573964 0.247500
0.538390 0.609578 0.247500
0.615677 0.643037 0.247500
0.706599 0.672131 0.247500
0.801210 0.695079 0.247500
0.899109 0.709508 0.247500
1.000000 0.714399 0.247500
0.000000 0.523537 0.247500
0.071167 0.527752 0.247500
0.143014 0.540350 0.247500
0.214754 0.560349 0.247500
0.287655 0.585357 0.247500
0.356963 0.615677 0.247500
0.428906 0.647885 0.247500
0.505034 0.680803 0.247500
0.585357 0.712345 0.247500
0.680746 0.739647 0.247500
0.782527 0.761140 0.247500
0.889158 0.773976 0.247500
1.000000 0.778532 0.247500
0.000000 0.627326 0.247500
0.062819 0.630974 0.247500
0.127287 0.641985 0.247500
0.192817 0.658949 0.247500
0.260353 0.680746 0.247500
0.327869 0.706599 0.247500
0.398982 0.732940 0.247500
0.476330 0.759690 0.247500
0.560349 0.785246 0.247500
0.658949 0.807183 0.247500
0.766829 0.824631 0.247500
0.880735 0.835235 0.247500
1.000000 0.839171 0.247500
0.000000 0.744206 0.247500
0.056233 0.746664 0.247500
0.114838 0.754641 0.247500
0.175369 0.766829 0.247500
0.238860 0.782527 0.247500
0.304921 0.801210 0.247500
0.375521 0.819991 0.247500
0.453834 0.838763 0.247500
0.540350 0.856986 0.247500
0.641985 0.872713 0.247500
0.754641 0.885162 0.247500
0.874336 0.892345 0.247500
1.000000 0.895120 0.247500
0.000000 0.868794 0.247500
0.052424 0.870146 0.247500
0.107655 0.874336 0.247500
0.164765 0.880735 0.247500
0.226024 0.889158 0.247500
0.290492 0.899109 0.247500
0.360499 0.909098 0.247500
0.439526 0.919121 0.247500
0.527752 0.928833 0.247500
0.630974 0.937181 0.247500
0.746664 0.943767 0.247500
0.870146 0.947576 0.247500
1.000000 0.949122 0.247500
0.000000 1.000000 0.247500
0.050878 1.000000 0.247500
0.104880 1.000000 0.247500
0.160829 1.000000 0.247500
0.221468 1.000000 0.247500
0.285601 1.000000 0.247500
0.355599 1.000000 0.247500
0.434667 1.000000 0.247500
0.523537 1.000000 0.247500
0.627326 1.000000 0.247500
0.744206 1.000000 0.247500
0.868794 1.000000 0.247500
1.000000 1.000000 0.247500
0.000000 0.000000 0.330000
0.131206 0.000000 0.330000
0.255794 0.000000 0.330000
0.372674 0.000000 0.330000
0.476463 0.000000 0.330000
0.565333 0.000000 0.330000
0.644401 0.000000 0.330000
0.714399 0.000000 0.330000
0.778532 0.000000 0.330000
0.839171 0.000000 0.330000
0.895120 0.000000 0.330000
0.949122 0.000000 0.330000
1.000000 0.000000 0.330000
0.000000 0.050878 0.330000
0.129855 0.052424 0.330000
0.253336 0.056233 0.330000
0.369026 0.062819 0.330000
0.472248 0.071167 0.330000
0.560474 0.080879 0.330000
0.639501 0.090903 0.330000
0.709508 0.100891 0.330000
0.773976 0.110842 0.330000
0.835235 0.119266 0.330000
0.892345 0.125664 0.330000
0.947576 0.129855 0.330000
1.000000 0.131206 0.330000
0.000000 0.104880 0.330000
0.125664 0.107655 0.330000
0.245359 0.114838 0.330000
0.358015 0.127287 0.330000
0.459650 0.143014 0.330000
0.546166 0.161237 0.330000
0.624479 0.180009 0.330000
0.695079 0.198790 0.330000
0.761140 0.217473 0.330000
0.824631 0.233171 0.330000
0.885162 0.245359 0.330000
0.943767 0.253336 0.330000
1.000000 0.255794 0.330000
0.000000 0.160829 0.330000
0.119266 0.164765 0.330000
0.233171 0.175369 0.330000
0.341051 0.192817 0.330000
0.439651 0.214754 0.330000
0.523670 0.240310 0.330000
0.601018 0.267060 0.330000
0.672131 0.293401 0.330000
0.739647 0.319254 0.330000
0.807183 0.341051 0.330000
0.872713 0.358015 0.330000
0.937181 0.369026 0.330000
1.000000 0.372674 0.330000
0.000000 0.221468 0.330000
0.110842 0.226024 0.330000
0.217473 0.238860 0.330000
0.319254 0.260353 0.330000
0.414643 0.287655 0.330000
0.494966 0.319197 0.330000
0.571094 0.352115 0.330000
0.643037 0.384323 0.330000
0.712345 0.414643 0.330000
0.785246 0.439651 0.330000
0.856986 0.459650 0.330000