# vtk DataFile Version 2.0
Mesh for Fierro
ASCII 
DATASET UNSTRUCTURED_GRID

POINTS 845 float
0.000000 0.000000 0.000000
0.418930 0.000000 0.000000
0.650705 0.000000 0.000000
0.753202 0.000000 0.000000
0.819534 0.000000 0.000000
0.860912 0.000000 0.000000
0.894510 0.000000 0.000000
0.918949 0.000000 0.000000
0.938348 0.000000 0.000000
0.954579 0.000000 0.000000
0.968996 0.000000 0.000000
0.984541 0.000000 0.000000
1.000000 0.000000 0.000000
0.000000 0.015459 0.000000
0.413800 0.021359 0.000000
0.640512 0.047960 0.000000
0.741391 0.079935 0.000000
0.802308 0.130946 0.000000
0.843277 0.178599 0.000000
0.873400 0.231431 0.000000
0.897548 0.284648 0.000000
0.917957 0.333725 0.000000
0.937878 0.370322 0.000000
0.957622 0.396356 0.000000
0.978641 0.413800 0.000000
1.000000 0.418930 0.000000
0.000000 0.031004 0.000000
0.396356 0.042378 0.000000
0.616291 0.089836 0.000000
0.717862 0.149932 0.000000
0.770117 0.236155 0.000000
0.807123 0.312092 0.000000
0.827612 0.394009 0.000000
0.843246 0.465483 0.000000
0.856534 0.529757 0.000000
0.879502 0.578478 0.000000
0.910164 0.616291 0.000000
0.952040 0.640512 0.000000
1.000000 0.650705 0.000000
0.000000 0.045421 0.000000
0.370322 0.062122 0.000000
0.578478 0.120498 0.000000
0.675082 0.199475 0.000000
0.717413 0.298541 0.000000
0.744679 0.386939 0.000000
0.748541 0.475645 0.000000
0.756623 0.551269 0.000000
0.766081 0.620121 0.000000
0.800525 0.675082 0.000000
0.850068 0.717862 0.000000
0.920065 0.741391 0.000000
1.000000 0.753202 0.000000
0.000000 0.061652 0.000000
0.333725 0.082043 0.000000
0.529757 0.143466 0.000000
0.620121 0.233919 0.000000
0.655801 0.337919 0.000000
0.668959 0.431947 0.000000
0.658646 0.517689 0.000000
0.659513 0.590846 0.000000
0.662081 0.655801 0.000000
0.701459 0.717413 0.000000
0.763845 0.770117 0.000000
0.869055 0.802309 0.000000
1.000000 0.819534 0.000000
0.000000 0.081051 0.000000
0.284648 0.102452 0.000000
0.465484 0.156754 0.000000
0.551269 0.243377 0.000000
0.590846 0.340487 0.000000
0.593964 0.431037 0.000000
0.578456 0.514242 0.000000
0.568963 0.593964 0.000000
0.568053 0.668959 0.000000
0.613061 0.744679 0.000000
0.687908 0.807122 0.000000
0.821401 0.843277 0.000000
1.000000 0.860912 0.000000
0.000000 0.105490 0.000000
0.231431 0.126600 0.000000
0.394009 0.172388 0.000000
0.475645 0.251459 0.000000
0.517689 0.341354 0.000000
0.514242 0.421544 0.000000
0.500000 0.500000 0.000000
0.485758 0.578456 0.000000
0.482311 0.658646 0.000000
0.524355 0.748541 0.000000
0.605991 0.827612 0.000000
0.768570 0.873400 0.000000
1.000000 0.894510 0.000000
0.000000 0.139088 0.000000
0.178599 0.156723 0.000000
0.312092 0.192877 0.000000
0.386939 0.255321 0.000000
0.431947 0.331041 0.000000
0.431037 0.406036 0.000000
0.421544 0.485758 0.000000
0.406036 0.568963 0.000000
0.409154 0.659513 0.000000
0.448731 0.756623 0.000000
0.534516 0.843246 0.000000
0.715353 0.897548 0.000000
1.000000 0.918950 0.000000
0.000000 0.180466 0.000000
0.130946 0.197692 0.000000
0.236155 0.229883 0.000000
0.298541 0.282587 0.000000
0.337919 0.344199 0.000000
0.340487 0.409154 0.000000
0.341354 0.482311 0.000000
0.331041 0.568053 0.000000
0.344199 0.662081 0.000000
0.379879 0.766081 0.000000
0.470243 0.856534 0.000000
0.666276 0.917957 0.000000
1.000000 0.938348 0.000000
0.000000 0.246798 0.000000
0.079935 0.258609 0.000000
0.149933 0.282138 0.000000
0.199475 0.324918 0.000000
0.233919 0.379879 0.000000
0.243377 0.448731 0.000000
0.251459 0.524355 0.000000
0.255321 0.613061 0.000000
0.282587 0.701459 0.000000
0.324918 0.800525 0.000000
0.421522 0.879502 0.000000
0.629679 0.937878 0.000000
1.000000 0.954579 0.000000
0.000000 0.349295 0.000000
0.047960 0.359488 0.000000
0.089836 0.383709 0.000000
0.120498 0.421522 0.000000
0.143466 0.470243 0.000000
0.156754 0.534516 0.000000
0.172388 0.605991 0.000000
0.192878 0.687908 0.000000
0.229883 0.763845 0.000000
0.282138 0.850068 0.000000
0.383709 0.910164 0.000000
0.603645 0.957622 0.000000
1.000000 0.968996 0.000000
0.000000 0.581071 0.000000
0.021359 0.586201 0.000000
0.042378 0.603645 0.000000
0.062122 0.629679 0.000000
0.082043 0.666276 0.000000
0.102452 0.715353 0.000000
0.126600 0.768570 0.000000
0.156723 0.821401 0.000000
0.197691 0.869055 0.000000
0.258609 0.920065 0.000000
0.359488 0.952040 0.000000
0.586201 0.978641 0.000000
1.000000 0.984541 0.000000
0.000000 1.000000 0.000000
0.015459 1.000000 0.000000
0.031004 1.000000 0.000000
0.045421 1.000000 0.000000
0.061652 1.000000 0.000000
0.081050 1.000000 0.000000
0.105490 1.000000 0.000000
0.139088 1.000000 0.000000
0.180466 1.000000 0.000000
0.246798 1.000000 0.000000
0.349295 1.000000 0.000000
0.581071 1.000000 0.000000
1.000000 1.000000 0.000000
0.000000 0.000000 0.082500
0.418930 0.000000 0.082500
0.650705 0.000000 0.082500
0.753202 0.000000 0.082500
0.819534 0.000000 0.082500
0.860912 0.000000 0.082500
0.894510 0.000000 0.082500
0.918949 0.000000 0.082500
0.938348 0.000000 0.082500
0.954579 0.000000 0.082500
0.968996 0.000000 0.082500
0.984541 0.000000 0.082500
1.000000 0.000000 0.082500
0.000000 0.015459 0.082500
0.413800 0.021359 0.082500
0.640512 0.047960 0.082500
0.741391 0.079935 0.082500
0.802308 0.130946 0.082500
0.843277 0.178599 0.082500
0.873400 0.231431 0.082500
0.897548 0.284648 0.082500
0.917957 0.333725 0.082500
0.937878 0.370322 0.082500
0.957622 0.396356 0.082500
0.978641 0.413800 0.082500
1.000000 0.418930 0.082500
0.000000 0.031004 0.082500
0.396356 0.042378 0.082500
0.616291 0.089836 0.082500
0.717862 0.149932 0.082500
0.770117 0.236155 0.082500
0.807123 0.312092 0.082500
0.827612 0.394009 0.082500
0.843246 0.465483 0.082500
0.856534 0.529757 0.082500
0.879502 0.578478 0.082500
0.910164 0.616291 0.082500
0.952040 0.640512 0.082500
1.000000 0.650705 0.082500
0.000000 0.045421 0.082500
0.370322 0.062122 0.082500
0.578478 0.120498 0.082500
0.675082 0.199475 0.082500
0.717413 0.298541 0.082500
0.744679 0.386939 0.082500
0.748541 0.475645 0.082500
0.756623 0.551269 0.082500
0.766081 0.620121 0.082500
0.800525 0.675082 0.082500
0.850068 0.717862 0.082500
0.920065 0.741391 0.082500
1.000000 0.753202 0.082500
0.000000 0.061652 0.082500
0.333725 0.082043 0.082500
0.529757 0.143466 0.082500
0.620121 0.233919 0.082500
0.655801 0.337919 0.082500
0.668959 0.431947 0.082500
0.658646 0.517689 0.082500
0.659513 0.590846 0.082500
0.662081 0.655801 0.082500
0.701459 0.717413 0.082500
0.763845 0.770117 0.082500
0.869055 0.802309 0.082500
1.000000 0.819534 0.082500
0.000000 0.081051 0.082500
0.284648 0.102452 0.082500
0.465484 0.156754 0.082500
0.551269 0.243377 0.082500
0.590846 0.340487 0.082500
0.593964 0.431037 0.082500
0.578456 0.514242 0.082500
0.568963 0.593964 0.082500
0.568053 0.668959 0.082500
0.613061 0.744679 0.082500
0.687908 0.807122 0.082500
0.821401 0.843277 0.082500
1.000000 0.860912 0.082500
0.000000 0.105490 0.082500
0.231431 0.126600 0.082500
0.394009 0.172388 0.082500
0.475645 0.251459 0.082500
0.517689 0.341354 0.082500
0.514242 0.421544 0.082500
0.500000 0.500000 0.082500
0.485758 0.578456 0.082500
0.482311 0.658646 0.082500
0.524355 0.748541 0.082500
0.605991 0.827612 0.082500
0.768570 0.873400 0.082500
1.000000 0.894510 0.082500
0.000000 0.139088 0.082500
0.178599 0.156723 0.082500
0.312092 0.192877 0.082500
0.386939 0.255321 0.082500
0.431947 0.331041 0.082500
0.431037 0.406036 0.082500
0.421544 0.485758 0.082500
0.406036 0.568963 0.082500
0.409154 0.659513 0.082500
0.448731 0.756623 0.082500
0.534516 0.843246 0.082500
0.715353 0.897548 0.082500
1.000000 0.918950 0.082500
0.000000 0.180466 0.082500
0.130946 0.197692 0.082500
0.236155 0.229883 0.082500
0.298541 0.282587 0.082500
0.337919 0.344199 0.082500
0.340487 0.409154 0.082500
0.341354 0.482311 0.082500
0.331041 0.568053 0.082500
0.344199 0.662081 0.082500
0.379879 0.766081 0.082500
0.470243 0.856534 0.082500
0.666276 0.917957 0.082500
1.000000 0.938348 0.082500
0.000000 0.246798 0.082500
0.079935 0.258609 0.082500
0.149933 0.282138 0.082500
0.199475 0.324918 0.082500
0.233919 0.379879 0.082500
0.243377 0.448731 0.082500
0.251459 0.524355 0.082500
0.255321 0.613061 0.082500
0.282587 0.701459 0.082500
0.324918 0.800525 0.082500
0.421522 0.879502 0.082500
0.629679 0.937878 0.082500
1.000000 0.954579 0.082500
0.000000 0.349295 0.082500
0.047960 0.359488 0.082500
0.089836 0.383709 0.082500
0.120498 0.421522 0.082500
0.143466 0.470243 0.082500
0.156754 0.534516 0.082500
0.172388 0.605991 0.082500
0.192878 0.687908 0.082500
0.229883 0.763845 0.082500
0.282138 0.850068 0.082500
0.383709 0.910164 0.082500
0.603645 0.957622 0.082500
1.000000 0.968996 0.082500
0.000000 0.581071 0.082500
0.021359 0.586201 0.082500
0.042378 0.603645 0.082500
0.062122 0.629679 0.082500
0.082043 0.666276 0.082500
0.102452 0.715353 0.082500
0.126600 0.768570 0.082500
0.156723 0.821401 0.082500
0.197691 0.869055 0.082500
0.258609 0.920065 0.082500
0.359488 0.952040 0.082500
0.586201 0.978641 0.082500
1.000000 0.984541 0.082500
0.000000 1.000000 0.082500
0.015459 1.000000 0.082500
0.031004 1.000000 0.082500
0.045421 1.000000 0.082500
0.061652 1.000000 0.082500
0.081050 1.000000 0.082500
0.105490 1.000000 0.082500
0.139088 1.000000 0.082500
0.180466 1.000000 0.082500
0.246798 1.000000 0.082500
0.349295 1.000000 0.082500
0.581071 1.000000 0.082500
1.000000 1.000000 0.082500
0.000000 0.000000 0.165000
0.418930 0.000000 0.165000
0.650705 0.000000 0.165000
0.753202 0.000000 0.165000
0.819534 0.000000 0.165000
0.860912 0.000000 0.165000
0.894510 0.000000 0.165000
0.918949 0.000000 0.165000
0.938348 0.000000 0.165000
0.954579 0.000000 0.165000
0.968996 0.000000 0.165000
0.984541 0.000000 0.165000
1.000000 0.000000 0.165000
0.000000 0.015459 0.165000
0.413800 0.021359 0.165000
0.640512 0.047960 0.165000
0.741391 0.079935 0.165000
0.802308 0.130946 0.165000
0.843277 0.178599 0.165000
0.873400 0.231431 0.165000
0.897548 0.284648 0.165000
0.917957 0.333725 0.165000
0.937878 0.370322 0.165000
0.957622 0.396356 0.165000
0.978641 0.413800 0.165000
1.000000 0.418930 0.165000
0.000000 0.031004 0.165000
0.396356 0.042378 0.165000
[...]
POINT_DATA 845 
VECTORS pos float 
0.000000 0.000000 0.000000
0.418930 0.000000 0.000000
0.650705 0.000000 0.000000
0.753202 0.000000 0.000000
0.819534 0.000000 0.000000
0.860912 0.000000 0.000000
0.894510 0.000000 0.000000
0.918949 0.000000 0.000000
0.938348 0.000000 0.000000
0.954579 0.000000 0.000000
0.968996 0.000000 0.000000
0.984541 0.000000 0.000000
1.000000 0.000000 0.000000
0.000000 0.015459 0.000000
0.413800 0.021359 0.000000
0.640512 0.047960 0.000000
0.741391 0.079935 0.000000
0.802308 0.130946 0.000000
0.843277 0.178599 0.000000
0.873400 0.231431 0.000000
0.897548 0.284648 0.000000
0.917957 0.333725 0.000000
0.937878 0.370322 0.000000
0.957622 0.396356 0.000000
0.978641 0.413800 0.000000
1.000000 0.418930 0.000000
0.000000 0.031004 0.000000
0.396356 0.042378 0.000000
0.616291 0.089836 0.000000
0.717862 0.149932 0.000000
0.770117 0.236155 0.000000
0.807123 0.312092 0.000000
0.827612 0.394009 0.000000
0.843246 0.465483 0.000000
0.856534 0.529757 0.000000
0.879502 0.578478 0.000000
0.910164 0.616291 0.000000
0.952040 0.640512 0.000000
1.000000 0.650705 0.000000
0.000000 0.045421 0.000000
0.370322 0.062122 0.000000
0.578478 0.120498 0.000000
0.675082 0.199475 0.000000
0.717413 0.298541 0.000000
0.744679 0.386939 0.000000
0.748541 0.475645 0.000000
0.756623 0.551269 0.000000
0.766081 0.620121 0.000000
0.800525 0.675082 0.000000
0.850068 0.717862 0.000000
0.920065 0.741391 0.000000
1.000000 0.753202 0.000000
0.000000 0.061652 0.000000
0.333725 0.082043 0.000000
0.529757 0.143466 0.000000
0.620121 0.233919 0.000000
0.655801 0.337919 0.000000
0.668959 0.431947 0.000000
0.658646 0.517689 0.000000
0.659513 0.590846 0.000000
0.662081 0.655801 0.000000
0.701459 0.717413 0.000000
0.763845 0.770117 0.000000
0.869055 0.802309 0.000000
1.000000 0.819534 0.000000
0.000000 0.081051 0.000000
0.284648 0.102452 0.000000
0.465484 0.156754 0.000000
0.551269 0.243377 0.000000
0.590846 0.340487 0.000000
0.593964 0.431037 0.000000
0.578456 0.514242 0.000000
0.568963 0.593964 0.000000
0.568053 0.668959 0.000000
0.613061 0.744679 0.000000
0.687908 0.807122 0.000000
0.821401 0.843277 0.000000
1.000000 0.860912 0.000000
0.000000 0.105490 0.000000
0.231431 0.126600 0.000000
0.394009 0.172388 0.000000
0.475645 0.251459 0.000000
0.517689 0.341354 0.000000
0.514242 0.421544 0.000000
0.500000 0.500000 0.000000
0.485758 0.578456 0.000000
0.482311 0.658646 0.000000
0.524355 0.748541 0.000000
0.605991 0.827612 0.000000
0.768570 0.873400 0.000000
1.000000 0.894510 0.000000
0.000000 0.139088 0.000000
0.178599 0.156723 0.000000
0.312092 0.192877 0.000000
0.386939 0.255321 0.000000
0.431947 0.331041 0.000000
0.431037 0.406036 0.000000
0.421544 0.485758 0.000000
0.406036 0.568963 0.000000
0.409154 0.659513 0.000000
0.448731 0.756623 0.000000
0.534516 0.843246 0.000000
0.715353 0.897548 0.000000
1.000000 0.918950 0.000000
0.000000 0.180466 0.000000
0.130946 0.197692 0.000000
0.236155 0.229883 0.000000
0.298541 0.282587 0.000000
0.337919 0.344199 0.000000
0.340487 0.409154 0.000000
0.341354 0.482311 0.000000
0.331041 0.568053 0.000000
0.344199 0.662081 0.000000
0.379879 0.766081 0.000000
0.470243 0.856534 0.000000
0.666276 0.917957 0.000000
1.000000 0.938348 0.000000
0.000000 0.246798 0.000000
0.079935 0.258609 0.000000
0.149933 0.282138 0.000000
0.199475 0.324918 0.000000
0.233919 0.379879 0.000000
0.243377 0.448731 0.000000
0.251459 0.524355 0.000000
0.255321 0.613061 0.000000
0.282587 0.701459 0.000000
0.324918 0.800525 0.000000
0.421522 0.879502 0.000000
0.629679 0.937878 0.000000
1.000000 0.954579 0.000000
0.000000 0.349295 0.000000
0.047960 0.359488 0.000000
0.089836 0.383709 0.000000
0.120498 0.421522 0.000000
0.143466 0.470243 0.000000
0.156754 0.534516 0.000000
0.172388 0.605991 0.000000
0.192878 0.687908 0.000000
0.229883 0.763845 0.000000
0.282138 0.850068 0.000000
0.383709 0.910164 0.000000
0.603645 0.957622 0.000000
1.000000 0.968996 0.000000
0.000000 0.581071 0.000000
0.021359 0.586201 0.000000
0.042378 0.603645 0.000000
0.062122 0.629679 0.000000
0.082043 0.666276 0.000000
0.102452 0.715353 0.000000
0.126600 0.768570 0.000000
0.156723 0.821401 0.000000
0.197691 0.869055 0.000000
0.258609 0.920065 0.000000
0.359488 0.952040 0.000000
0.586201 0.978641 0.000000
1.000000 0.984541 0.000000
0.000000 1.000000 0.000000
0.015459 1.000000 0.000000
0.031004 1.000000 0.000000
0.045421 1.000000 0.000000
0.061652 1.000000 0.000000
0.081050 1.000000 0.000000
0.105490 1.000000 0.000000
0.139088 1.000000 0.000000
0.180466 1.000000 0.000000
0.246798 1.000000 0.000000
0.349295 1.000000 0.000000
0.581071 1.000000 0.000000
1.000000 1.000000 0.000000
0.000000 0.000000 0.082500
0.418930 0.000000 0.082500
0.650705 0.000000 0.082500
0.753202 0.000000 0.082500
0.819534 0.000000 0.082500
0.860912 0.000000 0.082500
0.894510 0.000000 0.082500
0.918949 0.000000 0.082500
0.938348 0.000000 0.082500
0.954579 0.000000 0.082500
0.968996 0.000000 0.082500
0.984541 0.000000 0.082500
1.000000 0.000000 0.082500
0.000000 0.015459 0.082500
0.413800 0.021359 0.082500
0.640512 0.047960 0.082500
0.741391 0.079935 0.082500
0.802308 0.130946 0.082500
0.843277 0.178599 0.082500
0.873400 0.231431 0.082500
0.897548 0.284648 0.082500
0.917957 0.333725 0.082500
0.937878 0.370322 0.082500
0.957622 0.396356 0.082500
0.978641 0.413800 0.082500
1.000000 0.418930 0.082500
0.000000 0.031004 0.082500
0.396356 0.042378 0.082500
0.616291 0.089836 0.082500
0.717862 0.149932 0.082500
0.770117 0.236155 0.082500
0.807123 0.312092 0.082500
0.827612 0.394009 0.082500
0.843246 0.465483 0.082500
0.856534 0.529757 0.082500
0.879502 0.578478 0.082500
0.910164 0.616291 0.082500
0.952040 0.640512 0.082500
1.000000 0.650705 0.082500
0.000000 0.045421 0.082500
0.370322 0.062122 0.082500
0.578478 0.120498 0.082500
0.675082 0.199475 0.082500
0.717413 0.298541 0.082500
0.744679 0.386939 0.082500
0.748541 0.475645 0.082500
0.756623 0.551269 0.082500
0.766081 0.620121 0.082500
0.800525 0.675082 0.082500
0.850068 0.717862 0.082500
0.920065 0.741391 0.082500
1.000000 0.753202 0.082500
0.000000 0.061652 0.082500
0.333725 0.082043 0.082500
0.529757 0.143466 0.082500
0.620121 0.233919 0.082500
0.655801 0.337919 0.082500
0.668959 0.431947 0.082500
0.658646 0.517689 0.082500
0.659513 0.590846 0.082500
0.662081 0.655801 0.082500
0.701459 0.717413 0.082500
0.763845 0.770117 0.082500
0.869055 0.802309 0.082500
1.000000 0.819534 0.082500
0.000000 0.081051 0.082500
0.284648 0.102452 0.082500
0.465484 0.156754 0.082500
0.551269 0.243377 0.082500
0.590846 0.340487 0.082500
0.593964 0.431037 0.082500
0.578456 0.514242 0.082500
0.568963 0.593964 0.082500
0.568053 0.668959 0.082500
0.613061 0.744679 0.082500
0.687908 0.807122 0.082500
0.821401 0.843277 0.082500
1.000000 0.860912 0.082500
0.000000 0.105490 0.082500
0.231431 0.126600 0.082500
0.394009 0.172388 0.082500
0.475645 0.251459 0.082500
0.517689 0.341354 0.082500
0.514242 0.421544 0.082500
0.500000 0.500000 0.082500
0.485758 0.578456 0.082500
0.482311 0.658646 0.082500
0.524355 0.748541 0.082500
0.605991 0.827612 0.082500
0.768570 0.873400 0.082500
1.000000 0.894510 0.082500
0.000000 0.139088 0.082500
0.178599 0.156723 0.082500
0.312092 0.192877 0.082500
0.386939 0.255321 0.082500
0.431947 0.331041 0.082500
0.431037 0.406036 0.082500
0.421544 0.485758 0.082500
0.406036 0.568963 0.082500
0.409154 0.659513 0.082500
0.448731 0.756623 0.082500
0.534516 0.843246 0.082500
0.715353 0.897548 0.082500
1.000000 0.918950 0.082500
0.000000 0.180466 0.082500
0.130946 0.197692 0.082500
0.236155 0.229883 0.082500
0.298541 0.282587 0.082500
0.337919 0.344199 0.082500
0.340487 0.409154 0.082500
0.341354 0.482311 0.082500
0.331041 0.568053 0.082500
0.344199 0.662081 0.082500
0.379879 0.766081 0.082500
0.470243 0.856534 0.082500
0.666276 0.917957 0.082500
1.000000 0.938348 0.082500
0.000000 0.246798 0.082500
0.079935 0.258609 0.082500
0.149933 0.282138 0.082500
0.199475 0.324918 0.082500
0.233919 0.379879 0.082500
0.243377 0.448731 0.082500
0.251459 0.524355 0.082500
0.255321 0.613061 0.082500
0.282587 0.701459 0.082500
0.324918 0.800525 0.082500
0.421522 0.879502 0.082500
0.629679 0.937878 0.082500
1.000000 0.954579 0.082500
0.000000 0.349295 0.082500
0.047960 0.359488 0.082500
0.089836 0.383709 0.082500
0.120498 0.421522 0.082500
0.143466 0.470243 0.082500
0.156754 0.534516 0.082500
0.172388 0.605991 0.082500
0.192878 0.687908 0.082500
0.229883 0.763845 0.082500
0.282138 0.850068 0.082500
0.383709 0.910164 0.082500
0.603645 0.957622 0.082500
1.000000 0.968996 0.082500
0.000000 0.581071 0.082500
0.021359 0.586201 0.082500
0.042378 0.603645 0.082500
0.062122 0.629679 0.082500
0.082043 0.666276 0.082500
0.102452 0.715353 0.082500
0.126600 0.768570 0.082500
0.156723 0.821401 0.082500
0.197691 0.869055 0.082500
0.258609 0.920065 0.082500
0.359488 0.952040 0.082500
0.586201 0.978641 0.082500
1.000000 0.984541 0.082500
0.000000 1.000000 0.082500
0.015459 1.000000 0.082500
0.031004 1.000000 0.082500
0.045421 1.000000 0.082500
0.061652 1.000000 0.082500
0.081050 1.000000 0.082500
0.105490 1.000000 0.082500
0.139088 1.000000 0.082500
0.180466 1.000000 0.082500
0.246798 1.000000 0.082500
0.349295 1.000000 0.082500
0.581071 1.000000 0.082500
1.000000 1.000000 0.082500
0.000000 0.000000 0.165000
0.418930 0.000000 0.165000
0.650705 0.000000 0.165000
0.753202 0.000000 0.165000
0.819534 0.000000 0.165000
0.860912 0.000000 0.165000
0.894510 0.000000 0.165000
0.918949 0.000000 0.165000
0.938348 0.000000 0.165000
0.954579 0.000000 0.165000
0.968996 0.000000 0.165000
0.984541 0.000000 0.165000
1.000000 0.000000 0.165000
0.000000 0.015459 0.165000
0.413800 0.021359 0.165000
0.640512 0.047960 0.165000
0.741391 0.079935 0.165000
0.802308 0.130946 0.165000
0.843277 0.178599 0.165000
0.873400 0.231431 0.165000
0.897548 0.284648 0.165000
0.917957 0.333725 0.165000
0.937878 0.370322 0.165000
0.957622 0.396356 0.165000
0.978641 0.413800 0.165000
1.000000 0.418930 0.165000
0.000000 0.031004 0.165000
0.396356 0.042378 0.165000
0.616291 0.089836 0.165000
0.717862 0.149932 0.165000
0.770117 0.236155 0.165000
0.807123 0.312092 0.165000
0.827612 0.394009 0.165000
0.843246 0.465483 0.165000
0.856534 0.529757 0.165000
0.879502 0.578478 0.165000
0.910164 0.616291 0.165000
0.952040 0.640512 0.165000
1.000000 0.650705 0.165000
0.000000 0.045421 0.165000
0.370322 0.062122 0.165000
0.578478 0.120498 0.165000
0.675082 0.199475 0.165000
0.717413 0.298541 0.165000
0.744679 0.386939 0.165000
0.748541 0.475645 0.165000
0.756623 0.551269 0.165000
0.766081 0.620121 0.165000
0.800525 0.675082 0.165000
0.850068 0.717862 0.165000
0.920065 0.741391 0.165000
1.000000 0.753202 0.165000
0.000000 0.061652 0.165000
0.333725 0.082043 0.165000
0.529757 0.143466 0.165000
0.620121 0.233919 0.165000
0.655801 0.337919 0.165000
0.668959 0.431947 0.165000
0.658646 0.517689 0.165000
0.659513 0.590846 0.165000
0.662081 0.655801 0.165000
0.701459 0.717413 0.165000
0.763845 0.770117 0.165000
0.869055 0.802309 0.165000
1.000000 0.819534 0.165000
0.000000 0.081051 0.165000
0.284648 0.102452 0.165000
0.465484 0.156754 0.165000
0.551269 0.243377 0.165000
0.590846 0.340487 0.165000
0.593964 0.431037 0.165000
0.578456 0.514242 0.165000
0.568963 0.593964 0.165000
0.568053 0.668959 0.165000
0.613061 0.744679 0.165000
0.687908 0.807122 0.165000
0.821401 0.843277 0.165000
1.000000 0.860912 0.165000
0.000000 0.105490 0.165000
0.231431 0.126600 0.165000
0.394009 0.172388 0.165000
0.475645 0.251459 0.165000
0.517689 0.341354 0.165000
0.514242 0.421544 0.165000
0.500000 0.500000 0.165000
0.485758 0.578456 0.165000
0.482311 0.658646 0.165000
0.524355 0.748541 0.165000
0.605991 0.827612 0.165000
0.768570 0.873400 0.165000
1.000000 0.894510 0.165000
0.000000 0.139088 0.165000
0.178599 0.156723 0.165000
0.312092 0.192877 0.165000
0.386939 0.255321 0.165000
0.431947 0.331041 0.165000
0.431037 0.406036 0.165000
0.421544 0.485758 0.165000
0.406036 0.568963 0.165000
0.409154 0.659513 0.165000
0.448731 0.756623 0.165000
0.534516 0.843246 0.165000
0.715353 0.897548 0.165000
1.000000 0.918950 0.165000
0.000000 0.180466 0.165000
0.130946 0.197692 0.165000
0.236155 0.229883 0.165000
0.298541 0.282587 0.165000
0.337919 0.344199 0.165000
0.340487 0.409154 0.165000
0.341354 0.482311 0.165000
0.331041 0.568053 0.165000
0.344199 0.662081 0.165000
0.379879 0.766081 0.165000
0.470243 0.856534 0.165000
0.666276 0.917957 0.165000
1.000000 0.938348 0.165000
0.000000 0.246798 0.165000
0.079935 0.258609 0.165000
0.149933 0.282138 0.165000
0.199475 0.324918 0.165000
0.233919 0.379879 0.165000
0.243377 0.448731 0.165000
0.251459 0.524355 0.165000
0.255321 0.613061 0.165000
0.282587 0.701459 0.165000
0.324918 0.800525 0.165000
0.421522 0.879502 0.165000
0.629679 0.937878 0.165000
1.000000 0.954579 0.165000
0.000000 0.349295 0.165000
0.047960 0.359488 0.165000
0.089836 0.383709 0.165000
0.120498 0.421522 0.165000
0.143466 0.470243 0.165000
0.156754 0.534516 0.165000
0.172388 0.605991 0.165000
0.192878 0.687908 0.165000
0.229883 0.763845 0.165000
0.282138 0.850068 0.165000
0.383709 0.910164 0.165000
0.603645 0.957622 0.165000
1.000000 0.968996 0.165000
0.000000 0.581071 0.165000
0.021359 0.586201 0.165000
0.042378 0.603645 0.165000
0.062122 0.629679 0.165000
0.082043 0.666276 0.165000
0.102452 0.715353 0.165000
0.126600 0.768570 0.165000
0.156723 0.821401 0.165000
0.197691 0.869055 0.165000
0.258609 0.920065 0.165000
0.359488 0.952040 0.165000
0.586201 0.978641 0.165000
1.000000 0.984541 0.165000
0.000000 1.000000 0.165000
0.015459 1.000000 0.165000
0.031004 1.000000 0.165000
0.045421 1.000000 0.165000
0.061652 1.000000 0.165000
0.081050 1.000000 0.165000
0.105490 1.000000 0.165000
0.139088 1.000000 0.165000
0.180466 1.000000 0.165000
0.246798 1.000000 0.165000
0.349295 1.000000 0.165000
0.581071 1.000000 0.165000
1.000000 1.000000 0.165000
0.000000 0.000000 0.247500
0.418930 0.000000 0.247500
0.650705 0.000000 0.247500
0.753202 0.000000 0.247500
0.819534 0.000000 0.247500
0.860912 0.000000 0.247500
0.894510 0.000000 0.247500
0.918949 0.000000 0.247500
0.938348 0.000000 0.247500
0.954579 0.000000 0.247500
0.968996 0.000000 0.247500
0.984541 0.000000 0.247500
1.000000 0.000000 0.247500
0.000000 0.015459 0.247500
0.413800 0.021359 0.247500
0.640512 0.047960 0.247500
0.741391 0.079935 0.247500
0.802308 0.130946 0.247500
0.843277 0.178599 0.247500
0.873400 0.231431 0.247500
0.897548 0.284648 0.247500
0.917957 0.333725 0.247500
0.937878 0.370322 0.247500
0.957622 0.396356 0.247500
0.978641 0.413800 0.247500
1.000000 0.418930 0.247500
0.000000 0.031004 0.247500
0.396356 0.042378 0.247500
0.616291 0.089836 0.247500
0.717862 0.149932 0.247500
0.770117 0.236155 0.247500
0.807123 0.312092 0.247500
0.827612 0.394009 0.247500
0.843246 0.465483 0.247500
0.856534 0.529757 0.247500
0.879502 0.578478 0.247500
0.910164 0.616291 0.247500
0.952040 0.640512 0.247500
1.000000 0.650705 0.247500
0.000000 0.045421 0.247500
0.370322 0.062122 0.247500
0.578478 0.120498 0.247500
0.675082 0.199475 0.247500
0.717413 0.298541 0.247500
0.744679 0.386939 0.247500
0.748541 0.475645 0.247500
0.756623 0.551269 0.247500
0.766081 0.620121 0.247500
0.800525 0.675082 0.247500
0.850068 0.717862 0.247500
0.920065 0.741391 0.247500
1.000000 0.753202 0.247500
0.000000 0.061652 0.247500
0.333725 0.082043 0.247500
0.529757 0.143466 0.247500
0.620121 0.233919 0.247500
0.655801 0.337919 0.247500
0.668959 0.431947 0.247500
0.658646 0.517689 0.247500
0.659513 0.590846 0.247500
0.662081 0.655801 0.247500
0.701459 0.717413 0.247500
0.763845 0.770117 0.247500
0.869055 0.802309 0.247500
1.000000 0.819534 0.247500
0.000000 0.081051 0.247500
0.284648 0.102452 0.247500
0.465484 0.156754 0.247500
0.551269 0.243377 0.247500
0.590846 0.340487 0.247500
0.593964 0.431037 0.247500
0.578456 0.514242 0.247500
0.568963 0.593964 0.247500
0.568053 0.668959 0.247500
0.613061 0.744679 0.247500
0.687908 0.807122 0.247500
0.821401 0.843277 0.247500
1.000000 0.860912 0.247500
0.000000 0.105490 0.247500
0.231431 0.126600 0.247500
0.394009 0.172388 0.247500
0.475645 0.251459 0.247500
0.517689 0.341354 0.247500
0.514242 0.421544 0.247500
0.500000 0.500000 0.247500
0.485758 0.578456 0.247500
0.482311 0.658646 0.247500
0.524355 0.748541 0.247500
0.605991 0.827612 0.247500
0.768570 0.873400 0.247500
1.000000 0.894510 0.247500
0.000000 0.139088 0.247500
0.178599 0.156723 0.247500
0.312092 0.192877 0.247500
0.386939 0.255321 0.247500
0.431947 0.331041 0.247500
0.431037 0.406036 0.247500
0.421544 0.485758 0.247500
0.406036 0.568963 0.247500
0.409154 0.659513 0.247500
0.448731 0.756623 0.247500
0.534516 0.843246 0.247500
0.715353 0.897548 0.247500
1.000000 0.918950 0.247500
0.000000 0.180466 0.247500
0.130946 0.197692 0.247500
0.236155 0.229883 0.247500
0.298541 0.282587 0.247500
0.337919 0.344199 0.247500
0.340487 0.409154 0.247500
0.341354 0.482311 0.247500
0.331041 0.568053 0.247500
0.344199 0.662081 0.247500
0.379879 0.766081 0.247500
0.470243 0.856534 0.247500
0.666276 0.917957 0.247500
1.000000 0.938348 0.247500
0.000000 0.246798 0.247500
0.079935 0.258609 0.247500
0.149933 0.282138 0.247500
0.199475 0.324918 0.247500
0.233919 0.379879 0.247500
0.243377 0.448731 0.247500
0.251459 0.524355 0.247500
0.255321 0.613061 0.247500
0.282587 0.701459 0.247500
0.324918 0.800525 0.247500
0.421522 0.879502 0.247500
0.629679 0.937878 0.247500
1.000000 0.954579 0.247500
0.000000 0.349295 0.247500
0.047960 0.359488 0.247500
0.089836 0.383709 0.247500
0.120498 0.421522 0.247500
0.143466 0.470243 0.247500
0.156754 0.534516 0.247500
0.172388 0.605991 0.247500
0.192878 0.687908 0.247500
0.229883 0.763845 0.247500
0.282138 0.850068 0.247500
0.383709 0.910164 0.247500
0.603645 0.957622 0.247500
1.000000 0.968996 0.247500
0.000000 0.581071 0.247500
0.021359 0.586201 0.247500
0.042378 0.603645 0.247500
0.062122 0.629679 0.247500
0.082043 0.666276 0.247500
0.102452 0.715353 0.247500
0.126600 0.768570 0.247500
0.156723 0.821401 0.247500
0.197691 0.869055 0.247500
0.258609 0.920065 0.247500
0.359488 0.952040 0.247500
0.586201 0.978641 0.247500
1.000000 0.984541 0.247500
0.000000 1.000000 0.247500
0.015459 1.000000 0.247500
0.031004 1.000000 0.247500
0.045421 1.000000 0.247500
0.061652 1.000000 0.247500
0.081050 1.000000 0.247500
0.105490 1.000000 0.247500
0.139088 1.000000 0.247500
0.180466 1.000000 0.247500
0.246798 1.000000 0.247500
0.349295 1.000000 0.247500
0.581071 1.000000 0.247500
1.000000 1.000000 0.247500
0.000000 0.000000 0.330000
0.418930 0.000000 0.330000
0.650705 0.000000 0.330000
0.753202 0.000000 0.330000
0.819534 0.000000 0.330000
0.860912 0.000000 0.330000
0.894510 0.000000 0.330000
0.918949 0.000000 0.330000
0.938348 0.000000 0.330000
0.954579 0.000000 0.330000
0.968996 0.000000 0.330000
0.984541 0.000000 0.330000
1.000000 0.000000 0.330000
0.000000 0.015459 0.330000
0.413800 0.021359 0.330000
0.640512 0.047960 0.330000
0.741391 0.079935 0.330000
0.802308 0.130946 0.330000
0.843277 0.178599 0.330000
0.873400 0.231431 0.330000
0.897548 0.284648 0.330000
0.917957 0.333725 0.330000
0.937878 0.370322 0.330000
0.957622 0.396356 0.330000
0.978641 0.413800 0.330000
1.000000 0.418930 0.330000
0.000000 0.031004 0.330000
0.396356 0.042378 0.330000
0.616291 0.089836 0.330000
0.717862 0.149932 0.330000
0.770117 0.236155 0.330000
0.807123 0.312092 0.330000
0.827612 0.394009 0.330000
0.843246 0.465483 0.330000
0.856534 0.529757 0.330000
0.879502 0.578478 0.330000
0.910164 0.616291 0.330000
0.952040 0.640512 0.330000
1.000000 0.650705 0.330000
0.000000 0.045421 0.330000
0.370322 0.062122 0.330000
0.578478 0.120498 0.330000
0.675082 0.199475 0.330000
0.717413 0.298541 0.330000
0.744679 0.386939 0.330000
0.748541 0.475645 0.330000
0.756623 0.551269 0.330000
0.766081 0.620121 0.330000
0.800525 0.675082 0.330000
0.850068 0.717862 0.330000
0.920065 0.741391 0.330000
1.000000 0.753202 0.330000
0.000000 0.061652 0.330000
0.333725 0.082043 0.330000
0.529757 0.143466 0.330000
0.620121 0.233919 0.330000
0.655801 0.337919 0.330000
0.668959 0.431947 0.330000
0.658646 0.517689 0.330000
0.659513 0.590846 0.330000
0.662081 0.655801 0.330000
0.701459 0.717413 0.330000
0.763845 0.770117 0.330000