# vtk DataFile Version 2.0
Mesh for Fierro
ASCII 
DATASET UNSTRUCTURED_GRID

POINTS 845 float
0.000000 0.000000 0.000000
0.097102 0.000000 0.000000
0.193227 0.000000 0.000000
0.286971 0.000000 0.000000
0.379369 0.000000 0.000000
0.465511 0.000000 0.000000
0.549608 0.000000 0.000000
0.630510 0.000000 0.000000
0.706832 0.000000 0.000000
0.783900 0.000000 0.000000
0.856821 0.000000 0.000000
0.928997 0.000000 0.000000
1.000000 0.000000 0.000000
0.000000 0.071003 0.000000
0.096656 0.071452 0.000000
0.192358 0.072750 0.000000
0.285752 0.074832 0.000000
0.377847 0.077565 0.000000
0.463854 0.080721 0.000000
0.547927 0.084066 0.000000
0.628875 0.087406 0.000000
0.705379 0.090565 0.000000
0.782685 0.093275 0.000000
0.855958 0.095358 0.000000
0.928548 0.096656 0.000000
1.000000 0.097102 0.000000
0.000000 0.143179 0.000000
0.095358 0.144042 0.000000
0.189865 0.146557 0.000000
0.282212 0.150553 0.000000
0.373592 0.155764 0.000000
0.459056 0.161772 0.000000
0.542944 0.168156 0.000000
0.624055 0.174599 0.000000
0.701052 0.180636 0.000000
0.779138 0.185840 0.000000
0.853443 0.189865 0.000000
0.927251 0.192358 0.000000
1.000000 0.193227 0.000000
0.000000 0.216100 0.000000
0.093275 0.217315 0.000000
0.185840 0.220862 0.000000
0.276549 0.226530 0.000000
0.366652 0.233952 0.000000
0.451404 0.242488 0.000000
0.535046 0.251585 0.000000
0.616415 0.260656 0.000000
0.694192 0.269178 0.000000
0.773470 0.276549 0.000000
0.849447 0.282212 0.000000
0.925169 0.285752 0.000000
1.000000 0.286971 0.000000
0.000000 0.293168 0.000000
0.090565 0.294621 0.000000
0.180636 0.298948 0.000000
0.269178 0.305808 0.000000
0.357735 0.314769 0.000000
0.441411 0.325134 0.000000
0.524727 0.336216 0.000000
0.606421 0.347404 0.000000
0.685231 0.357735 0.000000
0.766048 0.366652 0.000000
0.844236 0.373592 0.000000
0.922436 0.377847 0.000000
1.000000 0.379369 0.000000
0.000000 0.369490 0.000000
0.087406 0.371125 0.000000
0.174599 0.375945 0.000000
0.260656 0.383585 0.000000
0.347404 0.393579 0.000000
0.429892 0.405088 0.000000
0.512827 0.417488 0.000000
0.594912 0.429892 0.000000
0.674866 0.441411 0.000000
0.757512 0.451404 0.000000
0.838228 0.459056 0.000000
0.919279 0.463854 0.000000
1.000000 0.465511 0.000000
0.000000 0.450392 0.000000
0.084066 0.452073 0.000000
0.168156 0.457056 0.000000
0.251585 0.464954 0.000000
0.336216 0.475273 0.000000
0.417488 0.487173 0.000000
0.500000 0.500000 0.000000
0.582512 0.512827 0.000000
0.663784 0.524727 0.000000
0.748415 0.535046 0.000000
0.831844 0.542944 0.000000
0.915934 0.547927 0.000000
1.000000 0.549608 0.000000
0.000000 0.534489 0.000000
0.080721 0.536146 0.000000
0.161772 0.540944 0.000000
0.242488 0.548596 0.000000
0.325134 0.558589 0.000000
0.405088 0.570108 0.000000
0.487173 0.582512 0.000000
0.570108 0.594912 0.000000
0.652596 0.606421 0.000000
0.739344 0.616415 0.000000
0.825401 0.624055 0.000000
0.912595 0.628875 0.000000
1.000000 0.630510 0.000000
0.000000 0.620631 0.000000
0.077565 0.622153 0.000000
0.155764 0.626408 0.000000
0.233952 0.633348 0.000000
0.314769 0.642265 0.000000
0.393579 0.652596 0.000000
0.475273 0.663784 0.000000
0.558589 0.674866 0.000000
0.642265 0.685231 0.000000
0.730822 0.694192 0.000000
0.819364 0.701052 0.000000
0.909435 0.705379 0.000000
1.000000 0.706832 0.000000
0.000000 0.713029 0.000000
0.074832 0.714248 0.000000
0.150553 0.717788 0.000000
0.226530 0.723451 0.000000
0.305808 0.730822 0.000000
0.383585 0.739344 0.000000
0.464954 0.748415 0.000000
0.548596 0.757512 0.000000
0.633348 0.766048 0.000000
0.723451 0.773470 0.000000
0.814160 0.779138 0.000000
0.906725 0.782685 0.000000
1.000000 0.783900 0.000000
0.000000 0.806773 0.000000
0.072750 0.807642 0.000000
0.146557 0.810135 0.000000
0.220862 0.814160 0.000000
0.298948 0.819364 0.000000
0.375945 0.825401 0.000000
0.457056 0.831844 0.000000
0.540944 0.838228 0.000000
0.626408 0.844236 0.000000
0.717788 0.849447 0.000000
0.810135 0.853443 0.000000
0.904643 0.855958 0.000000
1.000000 0.856821 0.000000
0.000000 0.902898 0.000000
0.071452 0.903344 0.000000
0.144042 0.904643 0.000000
0.217315 0.906725 0.000000
0.294621 0.909435 0.000000
0.371125 0.912595 0.000000
0.452073 0.915934 0.000000
0.536146 0.919279 0.000000
0.622153 0.922436 0.000000
0.714248 0.925169 0.000000
0.807642 0.927251 0.000000
0.903344 0.928548 0.000000
1.000000 0.928997 0.000000
0.000000 1.000000 0.000000
0.071003 1.000000 0.000000
0.143179 1.000000 0.000000
0.216100 1.000000 0.000000
0.293168 1.000000 0.000000
0.369490 1.000000 0.000000
0.450392 1.000000 0.000000
0.534489 1.000000 0.000000
0.620631 1.000000 0.000000
0.713029 1.000000 0.000000
0.806773 1.000000 0.000000
0.902898 1.000000 0.000000
1.000000 1.000000 0.000000
0.000000 0.000000 0.082500
0.097102 0.000000 0.082500
0.193227 0.000000 0.082500
0.286971 0.000000 0.082500
0.379369 0.000000 0.082500
0.465511 0.000000 0.082500
0.549608 0.000000 0.082500
0.630510 0.000000 0.082500
0.706832 0.000000 0.082500
0.783900 0.000000 0.082500
0.856821 0.000000 0.082500
0.928997 0.000000 0.082500
1.000000 0.000000 0.082500
0.000000 0.071003 0.082500
0.096656 0.071452 0.082500
0.192358 0.072750 0.082500
0.285752 0.074832 0.082500
0.377847 0.077565 0.082500
0.463854 0.080721 0.082500
0.547927 0.084066 0.082500
0.628875 0.087406 0.082500
0.705379 0.090565 0.082500
0.782685 0.093275 0.082500
0.855958 0.095358 0.082500
0.928548 0.096656 0.082500
1.000000 0.097102 0.082500
0.000000 0.143179 0.082500
0.095358 0.144042 0.082500
0.189865 0.146557 0.082500
0.282212 0.150553 0.082500
0.373592 0.155764 0.082500
0.459056 0.161772 0.082500
0.542944 0.168156 0.082500
0.624055 0.174599 0.082500
0.701052 0.180636 0.082500
0.779138 0.185840 0.082500
0.853443 0.189865 0.082500
0.927251 0.192358 0.082500
1.000000 0.193227 0.082500
0.000000 0.216100 0.082500
0.093275 0.217315 0.082500
0.185840 0.220862 0.082500
0.276549 0.226530 0.082500
0.366652 0.233952 0.082500
0.451404 0.242488 0.082500
0.535046 0.251585 0.082500
0.616415 0.260656 0.082500
0.694192 0.269178 0.082500
0.773470 0.276549 0.082500
0.849447 0.282212 0.082500
0.925169 0.285752 0.082500
1.000000 0.286971 0.082500
0.000000 0.293168 0.082500
0.090565 0.294621 0.082500
0.180636 0.298948 0.082500
0.269178 0.305808 0.082500
0.357735 0.314769 0.082500
0.441411 0.325134 0.082500
0.524727 0.336216 0.082500
0.606421 0.347404 0.082500
0.685231 0.357735 0.082500
0.766048 0.366652 0.082500
0.844236 0.373592 0.082500
0.922436 0.377847 0.082500
1.000000 0.379369 0.082500
0.000000 0.369490 0.082500
0.087406 0.371125 0.082500
0.174599 0.375945 0.082500
0.260656 0.383585 0.082500
0.347404 0.393579 0.082500
0.429892 0.405088 0.082500
0.512827 0.417488 0.082500
0.594912 0.429892 0.082500
0.674866 0.441411 0.082500
0.757512 0.451404 0.082500
0.838228 0.459056 0.082500
0.919279 0.463854 0.082500
1.000000 0.465511 0.082500
0.000000 0.450392 0.082500
0.084066 0.452073 0.082500
0.168156 0.457056 0.082500
0.251585 0.464954 0.082500
0.336216 0.475273 0.082500
0.417488 0.487173 0.082500
0.500000 0.500000 0.082500
0.582512 0.512827 0.082500
0.663784 0.524727 0.082500
0.748415 0.535046 0.082500
0.831844 0.542944 0.082500
0.915934 0.547927 0.082500
1.000000 0.549608 0.082500
0.000000 0.534489 0.082500
0.080721 0.536146 0.082500
0.161772 0.540944 0.082500
0.242488 0.548596 0.082500
0.325134 0.558589 0.082500
0.405088 0.570108 0.082500
0.487173 0.582512 0.082500
0.570108 0.594912 0.082500
0.652596 0.606421 0.082500
0.739344 0.616415 0.082500
0.825401 0.624055 0.082500
0.912595 0.628875 0.082500
1.000000 0.630510 0.082500
0.000000 0.620631 0.082500
0.077565 0.622153 0.082500
0.155764 0.626408 0.082500
0.233952 0.633348 0.082500
0.314769 0.642265 0.082500
0.393579 0.652596 0.082500
0.475273 0.663784 0.082500
0.558589 0.674866 0.082500
0.642265 0.685231 0.082500
0.730822 0.694192 0.082500
0.819364 0.701052 0.082500
0.909435 0.705379 0.082500
1.000000 0.706832 0.082500
0.000000 0.713029 0.082500
0.074832 0.714248 0.082500
0.150553 0.717788 0.082500
0.226530 0.723451 0.082500
0.305808 0.730822 0.082500
0.383585 0.739344 0.082500
0.464954 0.748415 0.082500
0.548596 0.757512 0.082500
0.633348 0.766048 0.082500
0.723451 0.773470 0.082500
0.814160 0.779138 0.082500
0.906725 0.782685 0.082500
1.000000 0.783900 0.082500
0.000000 0.806773 0.082500
0.072750 0.807642 0.082500
0.146557 0.810135 0.082500
0.220862 0.814160 0.082500
0.298948 0.819364 0.082500
0.375945 0.825401 0.082500
0.457056 0.831844 0.082500
0.540944 0.838228 0.082500
0.626408 0.844236 0.082500
0.717788 0.849447 0.082500
0.810135 0.853443 0.082500
0.904643 0.855958 0.082500
1.000000 0.856821 0.082500
0.000000 0.902898 0.082500
0.071452 0.903344 0.082500
0.144042 0.904643 0.082500
0.217315 0.906725 0.082500
0.294621 0.909435 0.082500
0.371125 0.912595 0.082500
0.452073 0.915934 0.082500
0.536146 0.919279 0.082500
0.622153 0.922436 0.082500
0.714248 0.925169 0.082500
0.807642 0.927251 0.082500
0.903344 0.928548 0.082500
1.000000 0.928997 0.082500
0.000000 1.000000 0.082500
0.071003 1.000000 0.082500
0.143179 1.000000 0.082500
0.216100 1.000000 0.082500
0.293168 1.000000 0.082500
0.369490 1.000000 0.082500
0.450392 1.000000 0.082500
0.534489 1.000000 0.082500
0.620631 1.000000 0.082500
0.713029 1.000000 0.082500
0.806773 1.000000 0.082500
0.902898 1.000000 0.082500
1.000000 1.000000 0.082500
0.000000 0.000000 0.165000
0.097102 0.000000 0.165000
0.193227 0.000000 0.165000
0.286971 0.000000 0.165000
0.379369 0.000000 0.165000
0.465511 0.000000 0.165000
0.549608 0.000000 0.165000
0.630510 0.000000 0.165000
0.706832 0.000000 0.165000
0.783900 0.000000 0.165000
0.856821 0.000000 0.165000
0.928997 0.000000 0.165000
1.000000 0.000000 0.165000
0.000000 0.071003 0.165000
0.096656 0.071452 0.165000
0.192358 0.072750 0.165000
0.285752 0.074832 0.165000
0.377847 0.077565 0.165000
0.463854 0.080721 0.165000
0.547927 0.084066 0.165000
0.628875 0.087406 0.165000
0.705379 0.090565 0.165000
0.782685 0.093275 0.165000
0.855958 0.095358 0.165000
0.928548 0.096656 0.165000
1.000000 0.097102 0.165000
0.000000 0.143179 0.165000
0.095358 0.144042 0.165000
[...]
POINT_DATA 845 
VECTORS pos float 
0.000000 0.000000 0.000000
0.097102 0.000000 0.000000
0.193227 0.000000 0.000000
0.286971 0.000000 0.000000
0.379369 0.000000 0.000000
0.465511 0.000000 0.000000
0.549608 0.000000 0.000000
0.630510 0.000000 0.000000
0.706832 0.000000 0.000000
0.783900 0.000000 0.000000
0.856821 0.000000 0.000000
0.928997 0.000000 0.000000
1.000000 0.000000 0.000000
0.000000 0.071003 0.000000
0.096656 0.071452 0.000000
0.192358 0.072750 0.000000
0.285752 0.074832 0.000000
0.377847 0.077565 0.000000
0.463854 0.080721 0.000000
0.547927 0.084066 0.000000
0.628875 0.087406 0.000000
0.705379 0.090565 0.000000
0.782685 0.093275 0.000000
0.855958 0.095358 0.000000
0.928548 0.096656 0.000000
1.000000 0.097102 0.000000
0.000000 0.143179 0.000000
0.095358 0.144042 0.000000
0.189865 0.146557 0.000000
0.282212 0.150553 0.000000
0.373592 0.155764 0.000000
0.459056 0.161772 0.000000
0.542944 0.168156 0.000000
0.624055 0.174599 0.000000
0.701052 0.180636 0.000000
0.779138 0.185840 0.000000
0.853443 0.189865 0.000000
0.927251 0.192358 0.000000
1.000000 0.193227 0.000000
0.000000 0.216100 0.000000
0.093275 0.217315 0.000000
0.185840 0.220862 0.000000
0.276549 0.226530 0.000000
0.366652 0.233952 0.000000
0.451404 0.242488 0.000000
0.535046 0.251585 0.000000
0.616415 0.260656 0.000000
0.694192 0.269178 0.000000
0.773470 0.276549 0.000000
0.849447 0.282212 0.000000
0.925169 0.285752 0.000000
1.000000 0.286971 0.000000
0.000000 0.293168 0.000000
0.090565 0.294621 0.000000
0.180636 0.298948 0.000000
0.269178 0.305808 0.000000
0.357735 0.314769 0.000000
0.441411 0.325134 0.000000
0.524727 0.336216 0.000000
0.606421 0.347404 0.000000
0.685231 0.357735 0.000000
0.766048 0.366652 0.000000
0.844236 0.373592 0.000000
0.922436 0.377847 0.000000
1.000000 0.379369 0.000000
0.000000 0.369490 0.000000
0.087406 0.371125 0.000000
0.174599 0.375945 0.000000
0.260656 0.383585 0.000000
0.347404 0.393579 0.000000
0.429892 0.405088 0.000000
0.512827 0.417488 0.000000
0.594912 0.429892 0.000000
0.674866 0.441411 0.000000
0.757512 0.451404 0.000000
0.838228 0.459056 0.000000
0.919279 0.463854 0.000000
1.000000 0.465511 0.000000
0.000000 0.450392 0.000000
0.084066 0.452073 0.000000
0.168156 0.457056 0.000000
0.251585 0.464954 0.000000
0.336216 0.475273 0.000000
0.417488 0.487173 0.000000
0.500000 0.500000 0.000000
0.582512 0.512827 0.000000
0.663784 0.524727 0.000000
0.748415 0.535046 0.000000
0.831844 0.542944 0.000000
0.915934 0.547927 0.000000
1.000000 0.549608 0.000000
0.000000 0.534489 0.000000
0.080721 0.536146 0.000000
0.161772 0.540944 0.000000
0.242488 0.548596 0.000000
0.325134 0.558589 0.000000
0.405088 0.570108 0.000000
0.487173 0.582512 0.000000
0.570108 0.594912 0.000000
0.652596 0.606421 0.000000
0.739344 0.616415 0.000000
0.825401 0.624055 0.000000
0.912595 0.628875 0.000000
1.000000 0.630510 0.000000
0.000000 0.620631 0.000000
0.077565 0.622153 0.000000
0.155764 0.626408 0.000000
0.233952 0.633348 0.000000
0.314769 0.642265 0.000000
0.393579 0.652596 0.000000
0.475273 0.663784 0.000000
0.558589 0.674866 0.000000
0.642265 0.685231 0.000000
0.730822 0.694192 0.000000
0.819364 0.701052 0.000000
0.909435 0.705379 0.000000
1.000000 0.706832 0.000000
0.000000 0.713029 0.000000
0.074832 0.714248 0.000000
0.150553 0.717788 0.000000
0.226530 0.723451 0.000000
0.305808 0.730822 0.000000
0.383585 0.739344 0.000000
0.464954 0.748415 0.000000
0.548596 0.757512 0.000000
0.633348 0.766048 0.000000
0.723451 0.773470 0.000000
0.814160 0.779138 0.000000
0.906725 0.782685 0.000000
1.000000 0.783900 0.000000
0.000000 0.806773 0.000000
0.072750 0.807642 0.000000
0.146557 0.810135 0.000000
0.220862 0.814160 0.000000
0.298948 0.819364 0.000000
0.375945 0.825401 0.000000
0.457056 0.831844 0.000000
0.540944 0.838228 0.000000
0.626408 0.844236 0.000000
0.717788 0.849447 0.000000
0.810135 0.853443 0.000000
0.904643 0.855958 0.000000
1.000000 0.856821 0.000000
0.000000 0.902898 0.000000
0.071452 0.903344 0.000000
0.144042 0.904643 0.000000
0.217315 0.906725 0.000000
0.294621 0.909435 0.000000
0.371125 0.912595 0.000000
0.452073 0.915934 0.000000
0.536146 0.919279 0.000000
0.622153 0.922436 0.000000
0.714248 0.925169 0.000000
0.807642 0.927251 0.000000
0.903344 0.928548 0.000000
1.000000 0.928997 0.000000
0.000000 1.000000 0.000000
0.071003 1.000000 0.000000
0.143179 1.000000 0.000000
0.216100 1.000000 0.000000
0.293168 1.000000 0.000000
0.369490 1.000000 0.000000
0.450392 1.000000 0.000000
0.534489 1.000000 0.000000
0.620631 1.000000 0.000000
0.713029 1.000000 0.000000
0.806773 1.000000 0.000000
0.902898 1.000000 0.000000
1.000000 1.000000 0.000000
0.000000 0.000000 0.082500
0.097102 0.000000 0.082500
0.193227 0.000000 0.082500
0.286971 0.000000 0.082500
0.379369 0.000000 0.082500
0.465511 0.000000 0.082500
0.549608 0.000000 0.082500
0.630510 0.000000 0.082500
0.706832 0.000000 0.082500
0.783900 0.000000 0.082500
0.856821 0.000000 0.082500
0.928997 0.000000 0.082500
1.000000 0.000000 0.082500
0.000000 0.071003 0.082500
0.096656 0.071452 0.082500
0.192358 0.072750 0.082500
0.285752 0.074832 0.082500
0.377847 0.077565 0.082500
0.463854 0.080721 0.082500
0.547927 0.084066 0.082500
0.628875 0.087406 0.082500
0.705379 0.090565 0.082500
0.782685 0.093275 0.082500
0.855958 0.095358 0.082500
0.928548 0.096656 0.082500
1.000000 0.097102 0.082500
0.000000 0.143179 0.082500
0.095358 0.144042 0.082500
0.189865 0.146557 0.082500
0.282212 0.150553 0.082500
0.373592 0.155764 0.082500
0.459056 0.161772 0.082500
0.542944 0.168156 0.082500
0.624055 0.174599 0.082500
0.701052 0.180636 0.082500
0.779138 0.185840 0.082500
0.853443 0.189865 0.082500
0.927251 0.192358 0.082500
1.000000 0.193227 0.082500
0.000000 0.216100 0.082500
0.093275 0.217315 0.082500
0.185840 0.220862 0.082500
0.276549 0.226530 0.082500
0.366652 0.233952 0.082500
0.451404 0.242488 0.082500
0.535046 0.251585 0.082500
0.616415 0.260656 0.082500
0.694192 0.269178 0.082500
0.773470 0.276549 0.082500
0.849447 0.282212 0.082500
0.925169 0.285752 0.082500
1.000000 0.286971 0.082500
0.000000 0.293168 0.082500
0.090565 0.294621 0.082500
0.180636 0.298948 0.082500
0.269178 0.305808 0.082500
0.357735 0.314769 0.082500
0.441411 0.325134 0.082500
0.524727 0.336216 0.082500
0.606421 0.347404 0.082500
0.685231 0.357735 0.082500
0.766048 0.366652 0.082500
0.844236 0.373592 0.082500
0.922436 0.377847 0.082500
1.000000 0.379369 0.082500
0.000000 0.369490 0.082500
0.087406 0.371125 0.082500
0.174599 0.375945 0.082500
0.260656 0.383585 0.082500
0.347404 0.393579 0.082500
0.429892 0.405088 0.082500
0.512827 0.417488 0.082500
0.594912 0.429892 0.082500
0.674866 0.441411 0.082500
0.757512 0.451404 0.082500
0.838228 0.459056 0.082500
0.919279 0.463854 0.082500
1.000000 0.465511 0.082500
0.000000 0.450392 0.082500
0.084066 0.452073 0.082500
0.168156 0.457056 0.082500
0.251585 0.464954 0.082500
0.336216 0.475273 0.082500
0.417488 0.487173 0.082500
0.500000 0.500000 0.082500
0.582512 0.512827 0.082500
0.663784 0.524727 0.082500
0.748415 0.535046 0.082500
0.831844 0.542944 0.082500
0.915934 0.547927 0.082500
1.000000 0.549608 0.082500
0.000000 0.534489 0.082500
0.080721 0.536146 0.082500
0.161772 0.540944 0.082500
0.242488 0.548596 0.082500
0.325134 0.558589 0.082500
0.405088 0.570108 0.082500
0.487173 0.582512 0.082500
0.570108 0.594912 0.082500
0.652596 0.606421 0.082500
0.739344 0.616415 0.082500
0.825401 0.624055 0.082500
0.912595 0.628875 0.082500
1.000000 0.630510 0.082500
0.000000 0.620631 0.082500
0.077565 0.622153 0.082500
0.155764 0.626408 0.082500
0.233952 0.633348 0.082500
0.314769 0.642265 0.082500
0.393579 0.652596 0.082500
0.475273 0.663784 0.082500
0.558589 0.674866 0.082500
0.642265 0.685231 0.082500
0.730822 0.694192 0.082500
0.819364 0.701052 0.082500
0.909435 0.705379 0.082500
1.000000 0.706832 0.082500
0.000000 0.713029 0.082500
0.074832 0.714248 0.082500
0.150553 0.717788 0.082500
0.226530 0.723451 0.082500
0.305808 0.730822 0.082500
0.383585 0.739344 0.082500
0.464954 0.748415 0.082500
0.548596 0.757512 0.082500
0.633348 0.766048 0.082500
0.723451 0.773470 0.082500
0.814160 0.779138 0.082500
0.906725 0.782685 0.082500
1.000000 0.783900 0.082500
0.000000 0.806773 0.082500
0.072750 0.807642 0.082500
0.146557 0.810135 0.082500
0.220862 0.814160 0.082500
0.298948 0.819364 0.082500
0.375945 0.825401 0.082500
0.457056 0.831844 0.082500
0.540944 0.838228 0.082500
0.626408 0.844236 0.082500
0.717788 0.849447 0.082500
0.810135 0.853443 0.082500
0.904643 0.855958 0.082500
1.000000 0.856821 0.082500
0.000000 0.902898 0.082500
0.071452 0.903344 0.082500
0.144042 0.904643 0.082500
0.217315 0.906725 0.082500
0.294621 0.909435 0.082500
0.371125 0.912595 0.082500
0.452073 0.915934 0.082500
0.536146 0.919279 0.082500
0.622153 0.922436 0.082500
0.714248 0.925169 0.082500
0.807642 0.927251 0.082500
0.903344 0.928548 0.082500
1.000000 0.928997 0.082500
0.000000 1.000000 0.082500
0.071003 1.000000 0.082500
0.143179 1.000000 0.082500
0.216100 1.000000 0.082500
0.293168 1.000000 0.082500
0.369490 1.000000 0.082500
0.450392 1.000000 0.082500
0.534489 1.000000 0.082500
0.620631 1.000000 0.082500
0.713029 1.000000 0.082500
0.806773 1.000000 0.082500
0.902898 1.000000 0.082500
1.000000 1.000000 0.082500
0.000000 0.000000 0.165000
0.097102 0.000000 0.165000
0.193227 0.000000 0.165000
0.286971 0.000000 0.165000
0.379369 0.000000 0.165000
0.465511 0.000000 0.165000
0.549608 0.000000 0.165000
0.630510 0.000000 0.165000
0.706832 0.000000 0.165000
0.783900 0.000000 0.165000
0.856821 0.000000 0.165000
0.928997 0.000000 0.165000
1.000000 0.000000 0.165000
0.000000 0.071003 0.165000
0.096656 0.071452 0.165000
0.192358 0.072750 0.165000
0.285752 0.074832 0.165000
0.377847 0.077565 0.165000
0.463854 0.080721 0.165000
0.547927 0.084066 0.165000
0.628875 0.087406 0.165000
0.705379 0.090565 0.165000
0.782685 0.093275 0.165000
0.855958 0.095358 0.165000
0.928548 0.096656 0.165000
1.000000 0.097102 0.165000
0.000000 0.143179 0.165000
0.095358 0.144042 0.165000
0.189865 0.146557 0.165000
0.282212 0.150553 0.165000
0.373592 0.155764 0.165000
0.459056 0.161772 0.165000
0.542944 0.168156 0.165000
0.624055 0.174599 0.165000
0.701052 0.180636 0.165000
0.779138 0.185840 0.165000
0.853443 0.189865 0.165000
0.927251 0.192358 0.165000
1.000000 0.193227 0.165000
0.000000 0.216100 0.165000
0.093275 0.217315 0.165000
0.185840 0.220862 0.165000
0.276549 0.226530 0.165000
0.366652 0.233952 0.165000
0.451404 0.242488 0.165000
0.535046 0.251585 0.165000
0.616415 0.260656 0.165000
0.694192 0.269178 0.165000
0.773470 0.276549 0.165000
0.849447 0.282212 0.165000
0.925169 0.285752 0.165000
1.000000 0.286971 0.165000
0.000000 0.293168 0.165000
0.090565 0.294621 0.165000
0.180636 0.298948 0.165000
0.269178 0.305808 0.165000
0.357735 0.314769 0.165000
0.441411 0.325134 0.165000
0.524727 0.336216 0.165000
0.606421 0.347404 0.165000
0.685231 0.357735 0.165000
0.766048 0.366652 0.165000
0.844236 0.373592 0.165000
0.922436 0.377847 0.165000
1.000000 0.379369 0.165000
0.000000 0.369490 0.165000
0.087406 0.371125 0.165000
0.174599 0.375945 0.165000
0.260656 0.383585 0.165000
0.347404 0.393579 0.165000
0.429892 0.405088 0.165000
0.512827 0.417488 0.165000
0.594912 0.429892 0.165000
0.674866 0.441411 0.165000
0.757512 0.451404 0.165000
0.838228 0.459056 0.165000
0.919279 0.463854 0.165000
1.000000 0.465511 0.165000
0.000000 0.450392 0.165000
0.084066 0.452073 0.165000
0.168156 0.457056 0.165000
0.251585 0.464954 0.165000
0.336216 0.475273 0.165000
0.417488 0.487173 0.165000
0.500000 0.500000 0.165000
0.582512 0.512827 0.165000
0.663784 0.524727 0.165000
0.748415 0.535046 0.165000
0.831844 0.542944 0.165000
0.915934 0.547927 0.165000
1.000000 0.549608 0.165000
0.000000 0.534489 0.165000
0.080721 0.536146 0.165000
0.161772 0.540944 0.165000
0.242488 0.548596 0.165000
0.325134 0.558589 0.165000
0.405088 0.570108 0.165000
0.487173 0.582512 0.165000
0.570108 0.594912 0.165000
0.652596 0.606421 0.165000
0.739344 0.616415 0.165000
0.825401 0.624055 0.165000
0.912595 0.628875 0.165000
1.000000 0.630510 0.165000
0.000000 0.620631 0.165000
0.077565 0.622153 0.165000
0.155764 0.626408 0.165000
0.233952 0.633348 0.165000
0.314769 0.642265 0.165000
0.393579 0.652596 0.165000
0.475273 0.663784 0.165000
0.558589 0.674866 0.165000
0.642265 0.685231 0.165000
0.730822 0.694192 0.165000
0.819364 0.701052 0.165000
0.909435 0.705379 0.165000
1.000000 0.706832 0.165000
0.000000 0.713029 0.165000
0.074832 0.714248 0.165000
0.150553 0.717788 0.165000
0.226530 0.723451 0.165000
0.305808 0.730822 0.165000
0.383585 0.739344 0.165000
0.464954 0.748415 0.165000
0.548596 0.757512 0.165000
0.633348 0.766048 0.165000
0.723451 0.773470 0.165000
0.814160 0.779138 0.165000
0.906725 0.782685 0.165000
1.000000 0.783900 0.165000
0.000000 0.806773 0.165000
0.072750 0.807642 0.165000
0.146557 0.810135 0.165000
0.220862 0.814160 0.165000
0.298948 0.819364 0.165000
0.375945 0.825401 0.165000
0.457056 0.831844 0.165000
0.540944 0.838228 0.165000
0.626408 0.844236 0.165000
0.717788 0.849447 0.165000
0.810135 0.853443 0.165000
0.904643 0.855958 0.165000
1.000000 0.856821 0.165000
0.000000 0.902898 0.165000
0.071452 0.903344 0.165000
0.144042 0.904643 0.165000
0.217315 0.906725 0.165000
0.294621 0.909435 0.165000
0.371125 0.912595 0.165000
0.452073 0.915934 0.165000
0.536146 0.919279 0.165000
0.622153 0.922436 0.165000
0.714248 0.925169 0.165000
0.807642 0.927251 0.165000
0.903344 0.928548 0.165000
1.000000 0.928997 0.165000
0.000000 1.000000 0.165000
0.071003 1.000000 0.165000
0.143179 1.000000 0.165000
0.216100 1.000000 0.165000
0.293168 1.000000 0.165000
0.369490 1.000000 0.165000
0.450392 1.000000 0.165000
0.534489 1.000000 0.165000
0.620631 1.000000 0.165000
0.713029 1.000000 0.165000
0.806773 1.000000 0.165000
0.902898 1.000000 0.165000
1.000000 1.000000 0.165000
0.000000 0.000000 0.247500
0.097102 0.000000 0.247500
0.193227 0.000000 0.247500
0.286971 0.000000 0.247500
0.379369 0.000000 0.247500
0.465511 0.000000 0.247500
0.549608 0.000000 0.247500
0.630510 0.000000 0.247500
0.706832 0.000000 0.247500
0.783900 0.000000 0.247500
0.856821 0.000000 0.247500
0.928997 0.000000 0.247500
1.000000 0.000000 0.247500
0.000000 0.071003 0.247500
0.096656 0.071452 0.247500
0.192358 0.072750 0.247500
0.285752 0.074832 0.247500
0.377847 0.077565 0.247500
0.463854 0.080721 0.247500
0.547927 0.084066 0.247500
0.628875 0.087406 0.247500
0.705379 0.090565 0.247500
0.782685 0.093275 0.247500
0.855958 0.095358 0.247500
0.928548 0.096656 0.247500
1.000000 0.097102 0.247500
0.000000 0.143179 0.247500
0.095358 0.144042 0.247500
0.189865 0.146557 0.247500
0.282212 0.150553 0.247500
0.373592 0.155764 0.247500
0.459056 0.161772 0.247500
0.542944 0.168156 0.247500
0.624055 0.174599 0.247500
0.701052 0.180636 0.247500
0.779138 0.185840 0.247500
0.853443 0.189865 0.247500
0.927251 0.192358 0.247500
1.000000 0.193227 0.247500
0.000000 0.216100 0.247500
0.093275 0.217315 0.247500
0.185840 0.220862 0.247500
0.276549 0.226530 0.247500
0.366652 0.233952 0.247500
0.451404 0.242488 0.247500
0.535046 0.251585 0.247500
0.616415 0.260656 0.247500
0.694192 0.269178 0.247500
0.773470 0.276549 0.247500
0.849447 0.282212 0.247500
0.925169 0.285752 0.247500
1.000000 0.286971 0.247500
0.000000 0.293168 0.247500
0.090565 0.294621 0.247500
0.180636 0.298948 0.247500
0.269178 0.305808 0.247500
0.357735 0.314769 0.247500
0.441411 0.325134 0.247500
0.524727 0.336216 0.247500
0.606421 0.347404 0.247500
0.685231 0.357735 0.247500
0.766048 0.366652 0.247500
0.844236 0.373592 0.247500
0.922436 0.377847 0.247500
1.000000 0.379369 0.247500
0.000000 0.369490 0.247500
0.087406 0.371125 0.247500
0.174599 0.375945 0.247500
0.260656 0.383585 0.247500
0.347404 0.393579 0.247500
0.429892 0.405088 0.247500
0.512827 0.417488 0.247500
0.594912 0.429892 0.247500
0.674866 0.441411 0.247500
0.757512 0.451404 0.247500
0.838228 0.459056 0.247500
0.919279 0.463854 0.247500
1.000000 0.465511 0.247500
0.000000 0.450392 0.247500
0.084066 0.452073 0.247500
0.168156 0.457056 0.247500
0.251585 0.464954 0.247500
0.336216 0.475273 0.247500
0.417488 0.487173 0.247500
0.500000 0.500000 0.247500
0.582512 0.512827 0.247500
0.663784 0.524727 0.247500
0.748415 0.535046 0.247500
0.831844 0.542944 0.247500
0.915934 0.547927 0.247500
1.000000 0.549608 0.247500
0.000000 0.534489 0.247500
0.080721 0.536146 0.247500
0.161772 0.540944 0.247500
0.242488 0.548596 0.247500
0.325134 0.558589 0.247500
0.405088 0.570108 0.247500
0.487173 0.582512 0.247500
0.570108 0.594912 0.247500
0.652596 0.606421 0.247500
0.739344 0.616415 0.247500
0.825401 0.624055 0.247500
0.912595 0.628875 0.247500
1.000000 0.630510 0.247500
0.000000 0.620631 0.247500
0.077565 0.622153 0.247500
0.155764 0.626408 0.247500
0.233952 0.633348 0.247500
0.314769 0.642265 0.247500
0.393579 0.652596 0.247500
0.475273 0.663784 0.247500
0.558589 0.674866 0.247500
0.642265 0.685231 0.247500
0.730822 0.694192 0.247500
0.819364 0.701052 0.247500
0.909435 0.705379 0.247500
1.000000 0.706832 0.247500
0.000000 0.713029 0.247500
0.074832 0.714248 0.247500
0.150553 0.717788 0.247500
0.226530 0.723451 0.247500
0.305808 0.730822 0.247500
0.383585 0.739344 0.247500
0.464954 0.748415 0.247500
0.548596 0.757512 0.247500
0.633348 0.766048 0.247500
0.723451 0.773470 0.247500
0.814160 0.779138 0.247500
0.906725 0.782685 0.247500
1.000000 0.783900 0.247500
0.000000 0.806773 0.247500
0.072750 0.807642 0.247500
0.146557 0.810135 0.247500
0.220862 0.814160 0.247500
0.298948 0.819364 0.247500
0.375945 0.825401 0.247500
0.457056 0.831844 0.247500
0.540944 0.838228 0.247500
0.626408 0.844236 0.247500
0.717788 0.849447 0.247500
0.810135 0.853443 0.247500
0.904643 0.855958 0.247500
1.000000 0.856821 0.247500
0.000000 0.902898 0.247500
0.071452 0.903344 0.247500
0.144042 0.904643 0.247500
0.217315 0.906725 0.247500
0.294621 0.909435 0.247500
0.371125 0.912595 0.247500
0.452073 0.915934 0.247500
0.536146 0.919279 0.247500
0.622153 0.922436 0.247500
0.714248 0.925169 0.247500
0.807642 0.927251 0.247500
0.903344 0.928548 0.247500
1.000000 0.928997 0.247500
0.000000 1.000000 0.247500
0.071003 1.000000 0.247500
0.143179 1.000000 0.247500
0.216100 1.000000 0.247500
0.293168 1.000000 0.247500
0.369490 1.000000 0.247500
0.450392 1.000000 0.247500
0.534489 1.000000 0.247500
0.620631 1.000000 0.247500
0.713029 1.000000 0.247500
0.806773 1.000000 0.247500
0.902898 1.000000 0.247500
1.000000 1.000000 0.247500
0.000000 0.000000 0.330000
0.097102 0.000000 0.330000
0.193227 0.000000 0.330000
0.286971 0.000000 0.330000
0.379369 0.000000 0.330000
0.465511 0.000000 0.330000
0.549608 0.000000 0.330000
0.630510 0.000000 0.330000
0.706832 0.000000 0.330000
0.783900 0.000000 0.330000
0.856821 0.000000 0.330000
0.928997 0.000000 0.330000
1.000000 0.000000 0.330000
0.000000 0.071003 0.330000
0.096656 0.071452 0.330000
0.192358 0.072750 0.330000
0.285752 0.074832 0.330000
0.377847 0.077565 0.330000
0.463854 0.080721 0.330000
0.547927 0.084066 0.330000
0.628875 0.087406 0.330000
0.705379 0.090565 0.330000
0.782685 0.093275 0.330000
0.855958 0.095358 0.330000
0.928548 0.096656 0.330000
1.000000 0.097102 0.330000
0.000000 0.143179 0.330000
0.095358 0.144042 0.330000
0.189865 0.146557 0.330000
0.282212 0.150553 0.330000
0.373592 0.155764 0.330000
0.459056 0.161772 0.330000
0.542944 0.168156 0.330000
0.624055 0.174599 0.330000
0.701052 0.180636 0.330000
0.779138 0.185840 0.330000
0.853443 0.189865 0.330000
0.927251 0.192358 0.330000
1.000000 0.193227 0.330000
0.000000 0.216100 0.330000
0.093275 0.217315 0.330000
0.185840 0.220862 0.330000
0.276549 0.226530 0.330000
0.366652 0.233952 0.330000
0.451404 0.242488 0.330000
0.535046 0.251585 0.330000
0.616415 0.260656 0.330000
0.694192 0.269178 0.330000
0.773470 0.276549 0.330000
0.849447 0.282212 0.330000
0.925169 0.285752 0.330000
1.000000 0.286971 0.330000
0.000000 0.293168 0.330000
0.090565 0.294621 0.330000
0.180636 0.298948 0.330000
0.269178 0.305808 0.330000
0.357735 0.314769 0.330000
0.441411 0.325134 0.330000
0.524727 0.336216 0.330000
0.606421 0.347404 0.330000
0.685231 0.357735 0.330000
0.766048 0.366652 0.330000
0.844236 0.373592 0.330000