# vtk DataFile Version 2.0
Mesh for Fierro
ASCII 
DATASET UNSTRUCTURED_GRID

POINTS 845 float
0.000000 0.000000 0.000000
0.210140 0.000000 0.000000
0.387291 0.000000 0.000000
0.524728 0.000000 0.000000
0.627047 0.000000 0.000000
0.707614 0.000000 0.000000
0.772049 0.000000 0.000000
0.822742 0.000000 0.000000
0.865796 0.000000 0.000000
0.904512 0.000000 0.000000
0.937059 0.000000 0.000000
0.969943 0.000000 0.000000
1.000000 0.000000 0.000000
0.000000 0.030057 0.000000
0.207345 0.035409 0.000000
0.382528 0.044317 0.000000
0.517804 0.059600 0.000000
0.619558 0.077884 0.000000
0.697981 0.098638 0.000000
0.761129 0.121129 0.000000
0.810767 0.143375 0.000000
0.853522 0.165875 0.000000
0.892497 0.184334 0.000000
0.929312 0.198007 0.000000
0.964591 0.207345 0.000000
1.000000 0.210140 0.000000
0.000000 0.062941 0.000000
0.198007 0.070688 0.000000
0.367057 0.088386 0.000000
0.497265 0.117181 0.000000
0.595820 0.150435 0.000000
0.670894 0.188586 0.000000
0.732004 0.229443 0.000000
0.782248 0.270022 0.000000
0.825758 0.310548 0.000000
0.868939 0.342889 0.000000
0.911614 0.367057 0.000000
0.955683 0.382528 0.000000
1.000000 0.387291 0.000000
0.000000 0.095488 0.000000
0.184334 0.107503 0.000000
0.342889 0.131061 0.000000
0.465807 0.169977 0.000000
0.559831 0.215795 0.000000
0.629387 0.267507 0.000000
0.685668 0.322433 0.000000
0.735506 0.373953 0.000000
0.780387 0.424212 0.000000
0.830023 0.465807 0.000000
0.882819 0.497265 0.000000
0.940400 0.517804 0.000000
1.000000 0.524728 0.000000
0.000000 0.134204 0.000000
0.165875 0.146478 0.000000
0.310548 0.174242 0.000000
0.424212 0.219613 0.000000
0.514569 0.275281 0.000000
0.577120 0.336477 0.000000
0.628421 0.400851 0.000000
0.677285 0.459753 0.000000
0.724719 0.514569 0.000000
0.784205 0.559831 0.000000
0.849565 0.595820 0.000000
0.922117 0.619558 0.000000
1.000000 0.627047 0.000000
0.000000 0.177258 0.000000
0.143375 0.189233 0.000000
0.270022 0.217752 0.000000
0.373953 0.264494 0.000000
0.459753 0.322715 0.000000
0.517514 0.386390 0.000000
0.565911 0.453283 0.000000
0.613610 0.517514 0.000000
0.663523 0.577120 0.000000
0.732493 0.629387 0.000000
0.811414 0.670894 0.000000
0.901362 0.697981 0.000000
1.000000 0.707614 0.000000
0.000000 0.227951 0.000000
0.121129 0.238871 0.000000
0.229443 0.267996 0.000000
0.322433 0.314332 0.000000
0.400851 0.371579 0.000000
0.453283 0.434089 0.000000
0.500000 0.500000 0.000000
0.546717 0.565911 0.000000
0.599149 0.628421 0.000000
0.677567 0.685668 0.000000
0.770557 0.732004 0.000000
0.878871 0.761129 0.000000
1.000000 0.772049 0.000000
0.000000 0.292386 0.000000
0.098638 0.302019 0.000000
0.188586 0.329106 0.000000
0.267507 0.370613 0.000000
0.336477 0.422880 0.000000
0.386390 0.482486 0.000000
0.434089 0.546717 0.000000
0.482486 0.613610 0.000000
0.540247 0.677285 0.000000
0.626047 0.735506 0.000000
0.729978 0.782248 0.000000
0.856625 0.810767 0.000000
1.000000 0.822742 0.000000
0.000000 0.372953 0.000000
0.077884 0.380442 0.000000
0.150435 0.404180 0.000000
0.215795 0.440169 0.000000
0.275281 0.485431 0.000000
0.322714 0.540247 0.000000
0.371579 0.599149 0.000000
0.422880 0.663523 0.000000
0.485431 0.724719 0.000000
0.575788 0.780387 0.000000
0.689452 0.825758 0.000000
0.834125 0.853522 0.000000
1.000000 0.865796 0.000000
0.000000 0.475272 0.000000
0.059600 0.482196 0.000000
0.117181 0.502735 0.000000
0.169977 0.534193 0.000000
0.219613 0.575788 0.000000
0.264494 0.626047 0.000000
0.314332 0.677567 0.000000
0.370613 0.732493 0.000000
0.440169 0.784205 0.000000
0.534193 0.830023 0.000000
0.657111 0.868939 0.000000
0.815666 0.892497 0.000000
1.000000 0.904512 0.000000
0.000000 0.612709 0.000000
0.044317 0.617472 0.000000
0.088386 0.632943 0.000000
0.131061 0.657111 0.000000
0.174242 0.689452 0.000000
0.217752 0.729978 0.000000
0.267996 0.770557 0.000000
0.329106 0.811414 0.000000
0.404180 0.849565 0.000000
0.502735 0.882819 0.000000
0.632943 0.911614 0.000000
0.801994 0.929312 0.000000
1.000000 0.937059 0.000000
0.000000 0.789861 0.000000
0.035409 0.792656 0.000000
0.070688 0.801994 0.000000
0.107503 0.815666 0.000000
0.146478 0.834125 0.000000
0.189233 0.856625 0.000000
0.238871 0.878871 0.000000
0.302019 0.901362 0.000000
0.380442 0.922117 0.000000
0.482196 0.940400 0.000000
0.617472 0.955683 0.000000
0.792656 0.964591 0.000000
1.000000 0.969943 0.000000
0.000000 1.000000 0.000000
0.030057 1.000000 0.000000
0.062941 1.000000 0.000000
0.095488 1.000000 0.000000
0.134204 1.000000 0.000000
0.177258 1.000000 0.000000
0.227951 1.000000 0.000000
0.292386 1.000000 0.000000
0.372953 1.000000 0.000000
0.475272 1.000000 0.000000
0.612709 1.000000 0.000000
0.789861 1.000000 0.000000
1.000000 1.000000 0.000000
0.000000 0.000000 0.082500
0.210140 0.000000 0.082500
0.387291 0.000000 0.082500
0.524728 0.000000 0.082500
0.627047 0.000000 0.082500
0.707614 0.000000 0.082500
0.772049 0.000000 0.082500
0.822742 0.000000 0.082500
0.865796 0.000000 0.082500
0.904512 0.000000 0.082500
0.937059 0.000000 0.082500
0.969943 0.000000 0.082500
1.000000 0.000000 0.082500
0.000000 0.030057 0.082500
0.207345 0.035409 0.082500
0.382528 0.044317 0.082500
0.517804 0.059600 0.082500
0.619558 0.077884 0.082500
0.697981 0.098638 0.082500
0.761129 0.121129 0.082500
0.810767 0.143375 0.082500
0.853522 0.165875 0.082500
0.892497 0.184334 0.082500
0.929312 0.198007 0.082500
0.964591 0.207345 0.082500
1.000000 0.210140 0.082500
0.000000 0.062941 0.082500
0.198007 0.070688 0.082500
0.367057 0.088386 0.082500
0.497265 0.117181 0.082500
0.595820 0.150435 0.082500
0.670894 0.188586 0.082500
0.732004 0.229443 0.082500
0.782248 0.270022 0.082500
0.825758 0.310548 0.082500
0.868939 0.342889 0.082500
0.911614 0.367057 0.082500
0.955683 0.382528 0.082500
1.000000 0.387291 0.082500
0.000000 0.095488 0.082500
0.184334 0.107503 0.082500
0.342889 0.131061 0.082500
0.465807 0.169977 0.082500
0.559831 0.215795 0.082500
0.629387 0.267507 0.082500
0.685668 0.322433 0.082500
0.735506 0.373953 0.082500
0.780387 0.424212 0.082500
0.830023 0.465807 0.082500
0.882819 0.497265 0.082500
0.940400 0.517804 0.082500
1.000000 0.524728 0.082500
0.000000 0.134204 0.082500
0.165875 0.146478 0.082500
0.310548 0.174242 0.082500
0.424212 0.219613 0.082500
0.514569 0.275281 0.082500
0.577120 0.336477 0.082500
0.628421 0.400851 0.082500
0.677285 0.459753 0.082500
0.724719 0.514569 0.082500
0.784205 0.559831 0.082500
0.849565 0.595820 0.082500
0.922117 0.619558 0.082500
1.000000 0.627047 0.082500
0.000000 0.177258 0.082500
0.143375 0.189233 0.082500
0.270022 0.217752 0.082500
0.373953 0.264494 0.082500
0.459753 0.322715 0.082500
0.517514 0.386390 0.082500
0.565911 0.453283 0.082500
0.613610 0.517514 0.082500
0.663523 0.577120 0.082500
0.732493 0.629387 0.082500
0.811414 0.670894 0.082500
0.901362 0.697981 0.082500
1.000000 0.707614 0.082500
0.000000 0.227951 0.082500
0.121129 0.238871 0.082500
0.229443 0.267996 0.082500
0.322433 0.314332 0.082500
0.400851 0.371579 0.082500
0.453283 0.434089 0.082500
0.500000 0.500000 0.082500
0.546717 0.565911 0.082500
0.599149 0.628421 0.082500
0.677567 0.685668 0.082500
0.770557 0.732004 0.082500
0.878871 0.761129 0.082500
1.000000 0.772049 0.082500
0.000000 0.292386 0.082500
0.098638 0.302019 0.082500
0.188586 0.329106 0.082500
0.267507 0.370613 0.082500
0.336477 0.422880 0.082500
0.386390 0.482486 0.082500
0.434089 0.546717 0.082500
0.482486 0.613610 0.082500
0.540247 0.677285 0.082500
0.626047 0.735506 0.082500
0.729978 0.782248 0.082500
0.856625 0.810767 0.082500
1.000000 0.822742 0.082500
0.000000 0.372953 0.082500
0.077884 0.380442 0.082500
0.150435 0.404180 0.082500
0.215795 0.440169 0.082500
0.275281 0.485431 0.082500
0.322714 0.540247 0.082500
0.371579 0.599149 0.082500
0.422880 0.663523 0.082500
0.485431 0.724719 0.082500
0.575788 0.780387 0.082500
0.689452 0.825758 0.082500
0.834125 0.853522 0.082500
1.000000 0.865796 0.082500
0.000000 0.475272 0.082500
0.059600 0.482196 0.082500
0.117181 0.502735 0.082500
0.169977 0.534193 0.082500
0.219613 0.575788 0.082500
0.264494 0.626047 0.082500
0.314332 0.677567 0.082500
0.370613 0.732493 0.082500
0.440169 0.784205 0.082500
0.534193 0.830023 0.082500
0.657111 0.868939 0.082500
0.815666 0.892497 0.082500
1.000000 0.904512 0.082500
0.000000 0.612709 0.082500
0.044317 0.617472 0.082500
0.088386 0.632943 0.082500
0.131061 0.657111 0.082500
0.174242 0.689452 0.082500
0.217752 0.729978 0.082500
0.267996 0.770557 0.082500
0.329106 0.811414 0.082500
0.404180 0.849565 0.082500
0.502735 0.882819 0.082500
0.632943 0.911614 0.082500
0.801994 0.929312 0.082500
1.000000 0.937059 0.082500
0.000000 0.789861 0.082500
0.035409 0.792656 0.082500
0.070688 0.801994 0.082500
0.107503 0.815666 0.082500
0.146478 0.834125 0.082500
0.189233 0.856625 0.082500
0.238871 0.878871 0.082500
0.302019 0.901362 0.082500
0.380442 0.922117 0.082500
0.482196 0.940400 0.082500
0.617472 0.955683 0.082500
0.792656 0.964591 0.082500
1.000000 0.969943 0.082500
0.000000 1.000000 0.082500
0.030057 1.000000 0.082500
0.062941 1.000000 0.082500
0.095488 1.000000 0.082500
0.134204 1.000000 0.082500
0.177258 1.000000 0.082500
0.227951 1.000000 0.082500
0.292386 1.000000 0.082500
0.372953 1.000000 0.082500
0.475272 1.000000 0.082500
0.612709 1.000000 0.082500
0.789861 1.000000 0.082500
1.000000 1.000000 0.082500
0.000000 0.000000 0.165000
0.210140 0.000000 0.165000
0.387291 0.000000 0.165000
0.524728 0.000000 0.165000
0.627047 0.000000 0.165000
0.707614 0.000000 0.165000
0.772049 0.000000 0.165000
0.822742 0.000000 0.165000
0.865796 0.000000 0.165000
0.904512 0.000000 0.165000
0.937059 0.000000 0.165000
0.969943 0.000000 0.165000
1.000000 0.000000 0.165000
0.000000 0.030057 0.165000
0.207345 0.035409 0.165000
0.382528 0.044317 0.165000
0.517804 0.059600 0.165000
0.619558 0.077884 0.165000
0.697981 0.098638 0.165000
0.761129 0.121129 0.165000
0.810767 0.143375 0.165000
0.853522 0.165875 0.165000
0.892497 0.184334 0.165000
0.929312 0.198007 0.165000
0.964591 0.207345 0.165000
1.000000 0.210140 0.165000
0.000000 0.062941 0.165000
0.198007 0.070688 0.165000
[...]
POINT_DATA 845 
VECTORS pos float 
0.000000 0.000000 0.000000
0.210140 0.000000 0.000000
0.387291 0.000000 0.000000
0.524728 0.000000 0.000000
0.627047 0.000000 0.000000
0.707614 0.000000 0.000000
0.772049 0.000000 0.000000
0.822742 0.000000 0.000000
0.865796 0.000000 0.000000
0.904512 0.000000 0.000000
0.937059 0.000000 0.000000
0.969943 0.000000 0.000000
1.000000 0.000000 0.000000
0.000000 0.030057 0.000000
0.207345 0.035409 0.000000
0.382528 0.044317 0.000000
0.517804 0.059600 0.000000
0.619558 0.077884 0.000000
0.697981 0.098638 0.000000
0.761129 0.121129 0.000000
0.810767 0.143375 0.000000
0.853522 0.165875 0.000000
0.892497 0.184334 0.000000
0.929312 0.198007 0.000000
0.964591 0.207345 0.000000
1.000000 0.210140 0.000000
0.000000 0.062941 0.000000
0.198007 0.070688 0.000000
0.367057 0.088386 0.000000
0.497265 0.117181 0.000000
0.595820 0.150435 0.000000
0.670894 0.188586 0.000000
0.732004 0.229443 0.000000
0.782248 0.270022 0.000000
0.825758 0.310548 0.000000
0.868939 0.342889 0.000000
0.911614 0.367057 0.000000
0.955683 0.382528 0.000000
1.000000 0.387291 0.000000
0.000000 0.095488 0.000000
0.184334 0.107503 0.000000
0.342889 0.131061 0.000000
0.465807 0.169977 0.000000
0.559831 0.215795 0.000000
0.629387 0.267507 0.000000
0.685668 0.322433 0.000000
0.735506 0.373953 0.000000
0.780387 0.424212 0.000000
0.830023 0.465807 0.000000
0.882819 0.497265 0.000000
0.940400 0.517804 0.000000
1.000000 0.524728 0.000000
0.000000 0.134204 0.000000
0.165875 0.146478 0.000000
0.310548 0.174242 0.000000
0.424212 0.219613 0.000000
0.514569 0.275281 0.000000
0.577120 0.336477 0.000000
0.628421 0.400851 0.000000
0.677285 0.459753 0.000000
0.724719 0.514569 0.000000
0.784205 0.559831 0.000000
0.849565 0.595820 0.000000
0.922117 0.619558 0.000000
1.000000 0.627047 0.000000
0.000000 0.177258 0.000000
0.143375 0.189233 0.000000
0.270022 0.217752 0.000000
0.373953 0.264494 0.000000
0.459753 0.322715 0.000000
0.517514 0.386390 0.000000
0.565911 0.453283 0.000000
0.613610 0.517514 0.000000
0.663523 0.577120 0.000000
0.732493 0.629387 0.000000
0.811414 0.670894 0.000000
0.901362 0.697981 0.000000
1.000000 0.707614 0.000000
0.000000 0.227951 0.000000
0.121129 0.238871 0.000000
0.229443 0.267996 0.000000
0.322433 0.314332 0.000000
0.400851 0.371579 0.000000
0.453283 0.434089 0.000000
0.500000 0.500000 0.000000
0.546717 0.565911 0.000000
0.599149 0.628421 0.000000
0.677567 0.685668 0.000000
0.770557 0.732004 0.000000
0.878871 0.761129 0.000000
1.000000 0.772049 0.000000
0.000000 0.292386 0.000000
0.098638 0.302019 0.000000
0.188586 0.329106 0.000000
0.267507 0.370613 0.000000
0.336477 0.422880 0.000000
0.386390 0.482486 0.000000
0.434089 0.546717 0.000000
0.482486 0.613610 0.000000
0.540247 0.677285 0.000000
0.626047 0.735506 0.000000
0.729978 0.782248 0.000000
0.856625 0.810767 0.000000
1.000000 0.822742 0.000000
0.000000 0.372953 0.000000
0.077884 0.380442 0.000000
0.150435 0.404180 0.000000
0.215795 0.440169 0.000000
0.275281 0.485431 0.000000
0.322714 0.540247 0.000000
0.371579 0.599149 0.000000
0.422880 0.663523 0.000000
0.485431 0.724719 0.000000
0.575788 0.780387 0.000000
0.689452 0.825758 0.000000
0.834125 0.853522 0.000000
1.000000 0.865796 0.000000
0.000000 0.475272 0.000000
0.059600 0.482196 0.000000
0.117181 0.502735 0.000000
0.169977 0.534193 0.000000
0.219613 0.575788 0.000000
0.264494 0.626047 0.000000
0.314332 0.677567 0.000000
0.370613 0.732493 0.000000
0.440169 0.784205 0.000000
0.534193 0.830023 0.000000
0.657111 0.868939 0.000000
0.815666 0.892497 0.000000
1.000000 0.904512 0.000000
0.000000 0.612709 0.000000
0.044317 0.617472 0.000000
0.088386 0.632943 0.000000
0.131061 0.657111 0.000000
0.174242 0.689452 0.000000
0.217752 0.729978 0.000000
0.267996 0.770557 0.000000
0.329106 0.811414 0.000000
0.404180 0.849565 0.000000
0.502735 0.882819 0.000000
0.632943 0.911614 0.000000
0.801994 0.929312 0.000000
1.000000 0.937059 0.000000
0.000000 0.789861 0.000000
0.035409 0.792656 0.000000
0.070688 0.801994 0.000000
0.107503 0.815666 0.000000
0.146478 0.834125 0.000000
0.189233 0.856625 0.000000
0.238871 0.878871 0.000000
0.302019 0.901362 0.000000
0.380442 0.922117 0.000000
0.482196 0.940400 0.000000
0.617472 0.955683 0.000000
0.792656 0.964591 0.000000
1.000000 0.969943 0.000000
0.000000 1.000000 0.000000
0.030057 1.000000 0.000000
0.062941 1.000000 0.000000
0.095488 1.000000 0.000000
0.134204 1.000000 0.000000
0.177258 1.000000 0.000000
0.227951 1.000000 0.000000
0.292386 1.000000 0.000000
0.372953 1.000000 0.000000
0.475272 1.000000 0.000000
0.612709 1.000000 0.000000
0.789861 1.000000 0.000000
1.000000 1.000000 0.000000
0.000000 0.000000 0.082500
0.210140 0.000000 0.082500
0.387291 0.000000 0.082500
0.524728 0.000000 0.082500
0.627047 0.000000 0.082500
0.707614 0.000000 0.082500
0.772049 0.000000 0.082500
0.822742 0.000000 0.082500
0.865796 0.000000 0.082500
0.904512 0.000000 0.082500
0.937059 0.000000 0.082500
0.969943 0.000000 0.082500
1.000000 0.000000 0.082500
0.000000 0.030057 0.082500
0.207345 0.035409 0.082500
0.382528 0.044317 0.082500
0.517804 0.059600 0.082500
0.619558 0.077884 0.082500
0.697981 0.098638 0.082500
0.761129 0.121129 0.082500
0.810767 0.143375 0.082500
0.853522 0.165875 0.082500
0.892497 0.184334 0.082500
0.929312 0.198007 0.082500
0.964591 0.207345 0.082500
1.000000 0.210140 0.082500
0.000000 0.062941 0.082500
0.198007 0.070688 0.082500
0.367057 0.088386 0.082500
0.497265 0.117181 0.082500
0.595820 0.150435 0.082500
0.670894 0.188586 0.082500
0.732004 0.229443 0.082500
0.782248 0.270022 0.082500
0.825758 0.310548 0.082500
0.868939 0.342889 0.082500
0.911614 0.367057 0.082500
0.955683 0.382528 0.082500
1.000000 0.387291 0.082500
0.000000 0.095488 0.082500
0.184334 0.107503 0.082500
0.342889 0.131061 0.082500
0.465807 0.169977 0.082500
0.559831 0.215795 0.082500
0.629387 0.267507 0.082500
0.685668 0.322433 0.082500
0.735506 0.373953 0.082500
0.780387 0.424212 0.082500
0.830023 0.465807 0.082500
0.882819 0.497265 0.082500
0.940400 0.517804 0.082500
1.000000 0.524728 0.082500
0.000000 0.134204 0.082500
0.165875 0.146478 0.082500
0.310548 0.174242 0.082500
0.424212 0.219613 0.082500
0.514569 0.275281 0.082500
0.577120 0.336477 0.082500
0.628421 0.400851 0.082500
0.677285 0.459753 0.082500
0.724719 0.514569 0.082500
0.784205 0.559831 0.082500
0.849565 0.595820 0.082500
0.922117 0.619558 0.082500
1.000000 0.627047 0.082500
0.000000 0.177258 0.082500
0.143375 0.189233 0.082500
0.270022 0.217752 0.082500
0.373953 0.264494 0.082500
0.459753 0.322715 0.082500
0.517514 0.386390 0.082500
0.565911 0.453283 0.082500
0.613610 0.517514 0.082500
0.663523 0.577120 0.082500
0.732493 0.629387 0.082500
0.811414 0.670894 0.082500
0.901362 0.697981 0.082500
1.000000 0.707614 0.082500
0.000000 0.227951 0.082500
0.121129 0.238871 0.082500
0.229443 0.267996 0.082500
0.322433 0.314332 0.082500
0.400851 0.371579 0.082500
0.453283 0.434089 0.082500
0.500000 0.500000 0.082500
0.546717 0.565911 0.082500
0.599149 0.628421 0.082500
0.677567 0.685668 0.082500
0.770557 0.732004 0.082500
0.878871 0.761129 0.082500
1.000000 0.772049 0.082500
0.000000 0.292386 0.082500
0.098638 0.302019 0.082500
0.188586 0.329106 0.082500
0.267507 0.370613 0.082500
0.336477 0.422880 0.082500
0.386390 0.482486 0.082500
0.434089 0.546717 0.082500
0.482486 0.613610 0.082500
0.540247 0.677285 0.082500
0.626047 0.735506 0.082500
0.729978 0.782248 0.082500
0.856625 0.810767 0.082500
1.000000 0.822742 0.082500
0.000000 0.372953 0.082500
0.077884 0.380442 0.082500
0.150435 0.404180 0.082500
0.215795 0.440169 0.082500
0.275281 0.485431 0.082500
0.322714 0.540247 0.082500
0.371579 0.599149 0.082500
0.422880 0.663523 0.082500
0.485431 0.724719 0.082500
0.575788 0.780387 0.082500
0.689452 0.825758 0.082500
0.834125 0.853522 0.082500
1.000000 0.865796 0.082500
0.000000 0.475272 0.082500
0.059600 0.482196 0.082500
0.117181 0.502735 0.082500
0.169977 0.534193 0.082500
0.219613 0.575788 0.082500
0.264494 0.626047 0.082500
0.314332 0.677567 0.082500
0.370613 0.732493 0.082500
0.440169 0.784205 0.082500
0.534193 0.830023 0.082500
0.657111 0.868939 0.082500
0.815666 0.892497 0.082500
1.000000 0.904512 0.082500
0.000000 0.612709 0.082500
0.044317 0.617472 0.082500
0.088386 0.632943 0.082500
0.131061 0.657111 0.082500
0.174242 0.689452 0.082500
0.217752 0.729978 0.082500
0.267996 0.770557 0.082500
0.329106 0.811414 0.082500
0.404180 0.849565 0.082500
0.502735 0.882819 0.082500
0.632943 0.911614 0.082500
0.801994 0.929312 0.082500
1.000000 0.937059 0.082500
0.000000 0.789861 0.082500
0.035409 0.792656 0.082500
0.070688 0.801994 0.082500
0.107503 0.815666 0.082500
0.146478 0.834125 0.082500
0.189233 0.856625 0.082500
0.238871 0.878871 0.082500
0.302019 0.901362 0.082500
0.380442 0.922117 0.082500
0.482196 0.940400 0.082500
0.617472 0.955683 0.082500
0.792656 0.964591 0.082500
1.000000 0.969943 0.082500
0.000000 1.000000 0.082500
0.030057 1.000000 0.082500
0.062941 1.000000 0.082500
0.095488 1.000000 0.082500
0.134204 1.000000 0.082500
0.177258 1.000000 0.082500
0.227951 1.000000 0.082500
0.292386 1.000000 0.082500
0.372953 1.000000 0.082500
0.475272 1.000000 0.082500
0.612709 1.000000 0.082500
0.789861 1.000000 0.082500
1.000000 1.000000 0.082500
0.000000 0.000000 0.165000
0.210140 0.000000 0.165000
0.387291 0.000000 0.165000
0.524728 0.000000 0.165000
0.627047 0.000000 0.165000
0.707614 0.000000 0.165000
0.772049 0.000000 0.165000
0.822742 0.000000 0.165000
0.865796 0.000000 0.165000
0.904512 0.000000 0.165000
0.937059 0.000000 0.165000
0.969943 0.000000 0.165000
1.000000 0.000000 0.165000
0.000000 0.030057 0.165000
0.207345 0.035409 0.165000
0.382528 0.044317 0.165000
0.517804 0.059600 0.165000
0.619558 0.077884 0.165000
0.697981 0.098638 0.165000
0.761129 0.121129 0.165000
0.810767 0.143375 0.165000
0.853522 0.165875 0.165000
0.892497 0.184334 0.165000
0.929312 0.198007 0.165000
0.964591 0.207345 0.165000
1.000000 0.210140 0.165000
0.000000 0.062941 0.165000
0.198007 0.070688 0.165000
0.367057 0.088386 0.165000
0.497265 0.117181 0.165000
0.595820 0.150435 0.165000
0.670894 0.188586 0.165000
0.732004 0.229443 0.165000
0.782248 0.270022 0.165000
0.825758 0.310548 0.165000
0.868939 0.342889 0.165000
0.911614 0.367057 0.165000
0.955683 0.382528 0.165000
1.000000 0.387291 0.165000
0.000000 0.095488 0.165000
0.184334 0.107503 0.165000
0.342889 0.131061 0.165000
0.465807 0.169977 0.165000
0.559831 0.215795 0.165000
0.629387 0.267507 0.165000
0.685668 0.322433 0.165000
0.735506 0.373953 0.165000
0.780387 0.424212 0.165000
0.830023 0.465807 0.165000
0.882819 0.497265 0.165000
0.940400 0.517804 0.165000
1.000000 0.524728 0.165000
0.000000 0.134204 0.165000
0.165875 0.146478 0.165000
0.310548 0.174242 0.165000
0.424212 0.219613 0.165000
0.514569 0.275281 0.165000
0.577120 0.336477 0.165000
0.628421 0.400851 0.165000
0.677285 0.459753 0.165000
0.724719 0.514569 0.165000
0.784205 0.559831 0.165000
0.849565 0.595820 0.165000
0.922117 0.619558 0.165000
1.000000 0.627047 0.165000
0.000000 0.177258 0.165000
0.143375 0.189233 0.165000
0.270022 0.217752 0.165000
0.373953 0.264494 0.165000
0.459753 0.322715 0.165000
0.517514 0.386390 0.165000
0.565911 0.453283 0.165000
0.613610 0.517514 0.165000
0.663523 0.577120 0.165000
0.732493 0.629387 0.165000
0.811414 0.670894 0.165000
0.901362 0.697981 0.165000
1.000000 0.707614 0.165000
0.000000 0.227951 0.165000
0.121129 0.238871 0.165000
0.229443 0.267996 0.165000
0.322433 0.314332 0.165000
0.400851 0.371579 0.165000
0.453283 0.434089 0.165000
0.500000 0.500000 0.165000
0.546717 0.565911 0.165000
0.599149 0.628421 0.165000
0.677567 0.685668 0.165000
0.770557 0.732004 0.165000
0.878871 0.761129 0.165000
1.000000 0.772049 0.165000
0.000000 0.292386 0.165000
0.098638 0.302019 0.165000
0.188586 0.329106 0.165000
0.267507 0.370613 0.165000
0.336477 0.422880 0.165000
0.386390 0.482486 0.165000
0.434089 0.546717 0.165000
0.482486 0.613610 0.165000
0.540247 0.677285 0.165000
0.626047 0.735506 0.165000
0.729978 0.782248 0.165000
0.856625 0.810767 0.165000
1.000000 0.822742 0.165000
0.000000 0.372953 0.165000
0.077884 0.380442 0.165000
0.150435 0.404180 0.165000
0.215795 0.440169 0.165000
0.275281 0.485431 0.165000
0.322714 0.540247 0.165000
0.371579 0.599149 0.165000
0.422880 0.663523 0.165000
0.485431 0.724719 0.165000
0.575788 0.780387 0.165000
0.689452 0.825758 0.165000
0.834125 0.853522 0.165000
1.000000 0.865796 0.165000
0.000000 0.475272 0.165000
0.059600 0.482196 0.165000
0.117181 0.502735 0.165000
0.169977 0.534193 0.165000
0.219613 0.575788 0.165000
0.264494 0.626047 0.165000
0.314332 0.677567 0.165000
0.370613 0.732493 0.165000
0.440169 0.784205 0.165000
0.534193 0.830023 0.165000
0.657111 0.868939 0.165000
0.815666 0.892497 0.165000
1.000000 0.904512 0.165000
0.000000 0.612709 0.165000
0.044317 0.617472 0.165000
0.088386 0.632943 0.165000
0.131061 0.657111 0.165000
0.174242 0.689452 0.165000
0.217752 0.729978 0.165000
0.267996 0.770557 0.165000
0.329106 0.811414 0.165000
0.404180 0.849565 0.165000
0.502735 0.882819 0.165000
0.632943 0.911614 0.165000
0.801994 0.929312 0.165000
1.000000 0.937059 0.165000
0.000000 0.789861 0.165000
0.035409 0.792656 0.165000
0.070688 0.801994 0.165000
0.107503 0.815666 0.165000
0.146478 0.834125 0.165000
0.189233 0.856625 0.165000
0.238871 0.878871 0.165000
0.302019 0.901362 0.165000
0.380442 0.922117 0.165000
0.482196 0.940400 0.165000
0.617472 0.955683 0.165000
0.792656 0.964591 0.165000
1.000000 0.969943 0.165000
0.000000 1.000000 0.165000
0.030057 1.000000 0.165000
0.062941 1.000000 0.165000
0.095488 1.000000 0.165000
0.134204 1.000000 0.165000
0.177258 1.000000 0.165000
0.227951 1.000000 0.165000
0.292386 1.000000 0.165000
0.372953 1.000000 0.165000
0.475272 1.000000 0.165000
0.612709 1.000000 0.165000
0.789861 1.000000 0.165000
1.000000 1.000000 0.165000
0.000000 0.000000 0.247500
0.210140 0.000000 0.247500
0.387291 0.000000 0.247500
0.524728 0.000000 0.247500
0.627047 0.000000 0.247500
0.707614 0.000000 0.247500
0.772049 0.000000 0.247500
0.822742 0.000000 0.247500
0.865796 0.000000 0.247500
0.904512 0.000000 0.247500
0.937059 0.000000 0.247500
0.969943 0.000000 0.247500
1.000000 0.000000 0.247500
0.000000 0.030057 0.247500
0.207345 0.035409 0.247500
0.382528 0.044317 0.247500
0.517804 0.059600 0.247500
0.619558 0.077884 0.247500
0.697981 0.098638 0.247500
0.761129 0.121129 0.247500
0.810767 0.143375 0.247500
0.853522 0.165875 0.247500
0.892497 0.184334 0.247500
0.929312 0.198007 0.247500
0.964591 0.207345 0.247500
1.000000 0.210140 0.247500
0.000000 0.062941 0.247500
0.198007 0.070688 0.247500
0.367057 0.088386 0.247500
0.497265 0.117181 0.247500
0.595820 0.150435 0.247500
0.670894 0.188586 0.247500
0.732004 0.229443 0.247500
0.782248 0.270022 0.247500
0.825758 0.310548 0.247500
0.868939 0.342889 0.247500
0.911614 0.367057 0.247500
0.955683 0.382528 0.247500
1.000000 0.387291 0.247500
0.000000 0.095488 0.247500
0.184334 0.107503 0.247500
0.342889 0.131061 0.247500
0.465807 0.169977 0.247500
0.559831 0.215795 0.247500
0.629387 0.267507 0.247500
0.685668 0.322433 0.247500
0.735506 0.373953 0.247500
0.780387 0.424212 0.247500
0.830023 0.465807 0.247500
0.882819 0.497265 0.247500
0.940400 0.517804 0.247500
1.000000 0.524728 0.247500
0.000000 0.134204 0.247500
0.165875 0.146478 0.247500
0.310548 0.174242 0.247500
0.424212 0.219613 0.247500
0.514569 0.275281 0.247500
0.577120 0.336477 0.247500
0.628421 0.400851 0.247500
0.677285 0.459753 0.247500
0.724719 0.514569 0.247500
0.784205 0.559831 0.247500
0.849565 0.595820 0.247500
0.922117 0.619558 0.247500
1.000000 0.627047 0.247500
0.000000 0.177258 0.247500
0.143375 0.189233 0.247500
0.270022 0.217752 0.247500
0.373953 0.264494 0.247500
0.459753 0.322715 0.247500
0.517514 0.386390 0.247500
0.565911 0.453283 0.247500
0.613610 0.517514 0.247500
0.663523 0.577120 0.247500
0.732493 0.629387 0.247500
0.811414 0.670894 0.247500
0.901362 0.697981 0.247500
1.000000 0.707614 0.247500
0.000000 0.227951 0.247500
0.121129 0.238871 0.247500
0.229443 0.267996 0.247500
0.322433 0.314332 0.247500
0.400851 0.371579 0.247500
0.453283 0.434089 0.247500
0.500000 0.500000 0.247500
0.546717 0.565911 0.247500
0.599149 0.628421 0.247500
0.677567 0.685668 0.247500
0.770557 0.732004 0.247500
0.878871 0.761129 0.247500
1.000000 0.772049 0.247500
0.000000 0.292386 0.247500
0.098638 0.302019 0.247500
0.188586 0.329106 0.247500
0.267507 0.370613 0.247500
0.336477 0.422880 0.247500
0.386390 0.482486 0.247500
0.434089 0.546717 0.247500
0.482486 0.613610 0.247500
0.540247 0.677285 0.247500
0.626047 0.735506 0.247500
0.729978 0.782248 0.247500
0.856625 0.810767 0.247500
1.000000 0.822742 0.247500
0.000000 0.372953 0.247500
0.077884 0.380442 0.247500
0.150435 0.404180 0.247500
0.215795 0.440169 0.247500
0.275281 0.485431 0.247500
0.322714 0.540247 0.247500
0.371579 0.599149 0.247500
0.422880 0.663523 0.247500
0.485431 0.724719 0.247500
0.575788 0.780387 0.247500
0.689452 0.825758 0.247500
0.834125 0.853522 0.247500
1.000000 0.865796 0.247500
0.000000 0.475272 0.247500
0.059600 0.482196 0.247500
0.117181 0.502735 0.247500
0.169977 0.534193 0.247500
0.219613 0.575788 0.247500
0.264494 0.626047 0.247500
0.314332 0.677567 0.247500
0.370613 0.732493 0.247500
0.440169 0.784205 0.247500
0.534193 0.830023 0.247500
0.657111 0.868939 0.247500
0.815666 0.892497 0.247500
1.000000 0.904512 0.247500
0.000000 0.612709 0.247500
0.044317 0.617472 0.247500
0.088386 0.632943 0.247500
0.131061 0.657111 0.247500
0.174242 0.689452 0.247500
0.217752 0.729978 0.247500
0.267996 0.770557 0.247500
0.329106 0.811414 0.247500
0.404180 0.849565 0.247500
0.502735 0.882819 0.247500
0.632943 0.911614 0.247500
0.801994 0.929312 0.247500
1.000000 0.937059 0.247500
0.000000 0.789861 0.247500
0.035409 0.792656 0.247500
0.070688 0.801994 0.247500
0.107503 0.815666 0.247500
0.146478 0.834125 0.247500
0.189233 0.856625 0.247500
0.238871 0.878871 0.247500
0.302019 0.901362 0.247500
0.380442 0.922117 0.247500
0.482196 0.940400 0.247500
0.617472 0.955683 0.247500
0.792656 0.964591 0.247500
1.000000 0.969943 0.247500
0.000000 1.000000 0.247500
0.030057 1.000000 0.247500
0.062941 1.000000 0.247500
0.095488 1.000000 0.247500
0.134204 1.000000 0.247500
0.177258 1.000000 0.247500
0.227951 1.000000 0.247500
0.292386 1.000000 0.247500
0.372953 1.000000 0.247500
0.475272 1.000000 0.247500
0.612709 1.000000 0.247500
0.789861 1.000000 0.247500
1.000000 1.000000 0.247500
0.000000 0.000000 0.330000
0.210140 0.000000 0.330000
0.387291 0.000000 0.330000
0.524728 0.000000 0.330000
0.627047 0.000000 0.330000
0.707614 0.000000 0.330000
0.772049 0.000000 0.330000
0.822742 0.000000 0.330000
0.865796 0.000000 0.330000
0.904512 0.000000 0.330000
0.937059 0.000000 0.330000
0.969943 0.000000 0.330000
1.000000 0.000000 0.330000
0.000000 0.030057 0.330000
0.207345 0.035409 0.330000
0.382528 0.044317 0.330000
0.517804 0.059600 0.330000
0.619558 0.077884 0.330000
0.697981 0.098638 0.330000
0.761129 0.121129 0.330000
0.810767 0.143375 0.330000
0.853522 0.165875 0.330000
0.892497 0.184334 0.330000
0.929312 0.198007 0.330000
0.964591 0.207345 0.330000
1.000000 0.210140 0.330000
0.000000 0.062941 0.330000
0.198007 0.070688 0.330000
0.367057 0.088386 0.330000
0.497265 0.117181 0.330000
0.595820 0.150435 0.330000
0.670894 0.188586 0.330000
0.732004 0.229443 0.330000
0.782248 0.270022 0.330000
0.825758 0.310548 0.330000
0.868939 0.342889 0.330000
0.911614 0.367057 0.330000
0.955683 0.382528 0.330000
1.000000 0.387291 0.330000
0.000000 0.095488 0.330000
0.184334 0.107503 0.330000
0.342889 0.131061 0.330000
0.465807 0.169977 0.330000
0.559831 0.215795 0.330000
0.629387 0.267507 0.330000
0.685668 0.322433 0.330000
0.735506 0.373953 0.330000
0.780387 0.424212 0.330000
0.830023 0.465807 0.330000
0.882819 0.497265 0.330000
0.940400 0.517804 0.330000
1.000000 0.524728 0.330000
0.000000 0.134204 0.330000
0.165875 0.146478 0.330000
0.310548 0.174242 0.330000
0.424212 0.219613 0.330000
0.514569 0.275281 0.330000
0.577120 0.336477 0.330000
0.628421 0.400851 0.330000
0.677285 0.459753 0.330000
0.724719 0.514569 0.330000
0.784205 0.559831 0.330000
0.849565 0.595820 0.330000