# vtk DataFile Version 2.0
Mesh for Fierro
ASCII 
DATASET UNSTRUCTURED_GRID

POINTS 845 float
0.000000 0.000000 0.000000
0.402014 0.000000 0.000000
0.631521 0.000000 0.000000
0.739695 0.000000 0.000000
0.808202 0.000000 0.000000
0.852948 0.000000 0.000000
0.888036 0.000000 0.000000
0.913043 0.000000 0.000000
0.933424 0.000000 0.000000
0.951707 0.000000 0.000000
0.968572 0.000000 0.000000
0.984600 0.000000 0.000000
1.000000 0.000000 0.000000
0.000000 0.015400 0.000000
0.396907 0.021730 0.000000
0.622112 0.046368 0.000000
0.728240 0.076969 0.000000
0.792348 0.124389 0.000000
0.835564 0.169740 0.000000
0.867623 0.219923 0.000000
0.893377 0.270894 0.000000
0.914688 0.318276 0.000000
0.935880 0.354080 0.000000
0.956733 0.379638 0.000000
0.978270 0.396907 0.000000
1.000000 0.402014 0.000000
0.000000 0.031428 0.000000
0.379638 0.043267 0.000000
0.598619 0.087435 0.000000
0.703963 0.144676 0.000000
0.761398 0.225751 0.000000
0.800773 0.299171 0.000000
0.823852 0.378787 0.000000
0.841994 0.449289 0.000000
0.857735 0.513245 0.000000
0.881674 0.561553 0.000000
0.912565 0.598619 0.000000
0.953632 0.622112 0.000000
1.000000 0.631521 0.000000
0.000000 0.048293 0.000000
0.354080 0.064120 0.000000
0.561553 0.118326 0.000000
0.661436 0.194094 0.000000
0.709123 0.288758 0.000000
0.739633 0.375281 0.000000
0.747472 0.462888 0.000000
0.758732 0.538070 0.000000
0.770656 0.606812 0.000000
0.805906 0.661436 0.000000
0.855324 0.703963 0.000000
0.923031 0.728241 0.000000
1.000000 0.739695 0.000000
0.000000 0.066576 0.000000
0.318276 0.085312 0.000000
0.513245 0.142265 0.000000
0.606812 0.229344 0.000000
0.648129 0.330084 0.000000
0.664925 0.422888 0.000000
0.659314 0.508792 0.000000
0.663754 0.582547 0.000000
0.669916 0.648129 0.000000
0.711242 0.709123 0.000000
0.774249 0.761398 0.000000
0.875611 0.792348 0.000000
1.000000 0.808202 0.000000
0.000000 0.086957 0.000000
0.270894 0.106623 0.000000
0.449289 0.158006 0.000000
0.538070 0.241268 0.000000
0.582547 0.336246 0.000000
0.589885 0.425862 0.000000
0.579155 0.509668 0.000000
0.574138 0.589885 0.000000
0.577112 0.664925 0.000000
0.624719 0.739633 0.000000
0.700829 0.800773 0.000000
0.830260 0.835564 0.000000
1.000000 0.852948 0.000000
0.000000 0.111964 0.000000
0.219923 0.132377 0.000000
0.378787 0.176148 0.000000
0.462888 0.252528 0.000000
0.508792 0.340686 0.000000
0.509668 0.420845 0.000000
0.500000 0.500000 0.000000
0.490332 0.579155 0.000000
0.491208 0.659314 0.000000
0.537112 0.747472 0.000000
0.621213 0.823852 0.000000
0.780078 0.867623 0.000000
1.000000 0.888036 0.000000
0.000000 0.147052 0.000000
0.169740 0.164436 0.000000
0.299171 0.199227 0.000000
0.375281 0.260367 0.000000
0.422888 0.335075 0.000000
0.425862 0.410115 0.000000
0.420845 0.490332 0.000000
0.410115 0.574138 0.000000
0.417453 0.663754 0.000000
0.461930 0.758732 0.000000
0.550711 0.841994 0.000000
0.729107 0.893377 0.000000
1.000000 0.913043 0.000000
0.000000 0.191798 0.000000
0.124389 0.207652 0.000000
0.225751 0.238602 0.000000
0.288757 0.290877 0.000000
0.330084 0.351870 0.000000
0.336247 0.417453 0.000000
0.340686 0.491208 0.000000
0.335075 0.577112 0.000000
0.351870 0.669916 0.000000
0.393188 0.770656 0.000000
0.486755 0.857735 0.000000
0.681725 0.914688 0.000000
1.000000 0.933424 0.000000
0.000000 0.260305 0.000000
0.076969 0.271759 0.000000
0.144676 0.296037 0.000000
0.194094 0.338564 0.000000
0.229344 0.393188 0.000000
0.241268 0.461930 0.000000
0.252528 0.537112 0.000000
0.260367 0.624719 0.000000
0.290877 0.711243 0.000000
0.338564 0.805906 0.000000
0.438446 0.881674 0.000000
0.645921 0.935880 0.000000
1.000000 0.951707 0.000000
0.000000 0.368479 0.000000
0.046368 0.377888 0.000000
0.087435 0.401381 0.000000
0.118326 0.438446 0.000000
0.142265 0.486755 0.000000
0.158006 0.550711 0.000000
0.176148 0.621213 0.000000
0.199227 0.700829 0.000000
0.238602 0.774249 0.000000
0.296037 0.855324 0.000000
0.401381 0.912565 0.000000
0.620363 0.956733 0.000000
1.000000 0.968572 0.000000
0.000000 0.597987 0.000000
0.021730 0.603094 0.000000
0.043267 0.620363 0.000000
0.064120 0.645921 0.000000
0.085312 0.681725 0.000000
0.106623 0.729107 0.000000
0.132377 0.780078 0.000000
0.164436 0.830260 0.000000
0.207652 0.875611 0.000000
0.271759 0.923031 0.000000
0.377888 0.953632 0.000000
0.603094 0.978270 0.000000
1.000000 0.984600 0.000000
0.000000 1.000000 0.000000
0.015400 1.000000 0.000000
0.031428 1.000000 0.000000
0.048293 1.000000 0.000000
0.066576 1.000000 0.000000
0.086957 1.000000 0.000000
0.111964 1.000000 0.000000
0.147052 1.000000 0.000000
0.191798 1.000000 0.000000
0.260305 1.000000 0.000000
0.368479 1.000000 0.000000
0.597987 1.000000 0.000000
1.000000 1.000000 0.000000
0.000000 0.000000 0.082500
0.402014 0.000000 0.082500
0.631521 0.000000 0.082500
0.739695 0.000000 0.082500
0.808202 0.000000 0.082500
0.852948 0.000000 0.082500
0.888036 0.000000 0.082500
0.913043 0.000000 0.082500
0.933424 0.000000 0.082500
0.951707 0.000000 0.082500
0.968572 0.000000 0.082500
0.984600 0.000000 0.082500
1.000000 0.000000 0.082500
0.000000 0.015400 0.082500
0.396907 0.021730 0.082500
0.622112 0.046368 0.082500
0.728240 0.076969 0.082500
0.792348 0.124389 0.082500
0.835564 0.169740 0.082500
0.867623 0.219923 0.082500
0.893377 0.270894 0.082500
0.914688 0.318276 0.082500
0.935880 0.354080 0.082500
0.956733 0.379638 0.082500
0.978270 0.396907 0.082500
1.000000 0.402014 0.082500
0.000000 0.031428 0.082500
0.379638 0.043267 0.082500
0.598619 0.087435 0.082500
0.703963 0.144676 0.082500
0.761398 0.225751 0.082500
0.800773 0.299171 0.082500
0.823852 0.378787 0.082500
0.841994 0.449289 0.082500
0.857735 0.513245 0.082500
0.881674 0.561553 0.082500
0.912565 0.598619 0.082500
0.953632 0.622112 0.082500
1.000000 0.631521 0.082500
0.000000 0.048293 0.082500
0.354080 0.064120 0.082500
0.561553 0.118326 0.082500
0.661436 0.194094 0.082500
0.709123 0.288758 0.082500
0.739633 0.375281 0.082500
0.747472 0.462888 0.082500
0.758732 0.538070 0.082500
0.770656 0.606812 0.082500
0.805906 0.661436 0.082500
0.855324 0.703963 0.082500
0.923031 0.728241 0.082500
1.000000 0.739695 0.082500
0.000000 0.066576 0.082500
0.318276 0.085312 0.082500
0.513245 0.142265 0.082500
0.606812 0.229344 0.082500
0.648129 0.330084 0.082500
0.664925 0.422888 0.082500
0.659314 0.508792 0.082500
0.663754 0.582547 0.082500
0.669916 0.648129 0.082500
0.711242 0.709123 0.082500
0.774249 0.761398 0.082500
0.875611 0.792348 0.082500
1.000000 0.808202 0.082500
0.000000 0.086957 0.082500
0.270894 0.106623 0.082500
0.449289 0.158006 0.082500
0.538070 0.241268 0.082500
0.582547 0.336246 0.082500
0.589885 0.425862 0.082500
0.579155 0.509668 0.082500
0.574138 0.589885 0.082500
0.577112 0.664925 0.082500
0.624719 0.739633 0.082500
0.700829 0.800773 0.082500
0.830260 0.835564 0.082500
1.000000 0.852948 0.082500
0.000000 0.111964 0.082500
0.219923 0.132377 0.082500
0.378787 0.176148 0.082500
0.462888 0.252528 0.082500
0.508792 0.340686 0.082500
0.509668 0.420845 0.082500
0.500000 0.500000 0.082500
0.490332 0.579155 0.082500
0.491208 0.659314 0.082500
0.537112 0.747472 0.082500
0.621213 0.823852 0.082500
0.780078 0.867623 0.082500
1.000000 0.888036 0.082500
0.000000 0.147052 0.082500
0.169740 0.164436 0.082500
0.299171 0.199227 0.082500
0.375281 0.260367 0.082500
0.422888 0.335075 0.082500
0.425862 0.410115 0.082500
0.420845 0.490332 0.082500
0.410115 0.574138 0.082500
0.417453 0.663754 0.082500
0.461930 0.758732 0.082500
0.550711 0.841994 0.082500
0.729107 0.893377 0.082500
1.000000 0.913043 0.082500
0.000000 0.191798 0.082500
0.124389 0.207652 0.082500
0.225751 0.238602 0.082500
0.288757 0.290877 0.082500
0.330084 0.351870 0.082500
0.336247 0.417453 0.082500
0.340686 0.491208 0.082500
0.335075 0.577112 0.082500
0.351870 0.669916 0.082500
0.393188 0.770656 0.082500
0.486755 0.857735 0.082500
0.681725 0.914688 0.082500
1.000000 0.933424 0.082500
0.000000 0.260305 0.082500
0.076969 0.271759 0.082500
0.144676 0.296037 0.082500
0.194094 0.338564 0.082500
0.229344 0.393188 0.082500
0.241268 0.461930 0.082500
0.252528 0.537112 0.082500
0.260367 0.624719 0.082500
0.290877 0.711243 0.082500
0.338564 0.805906 0.082500
0.438446 0.881674 0.082500
0.645921 0.935880 0.082500
1.000000 0.951707 0.082500
0.000000 0.368479 0.082500
0.046368 0.377888 0.082500
0.087435 0.401381 0.082500
0.118326 0.438446 0.082500
0.142265 0.486755 0.082500
0.158006 0.550711 0.082500
0.176148 0.621213 0.082500
0.199227 0.700829 0.082500
0.238602 0.774249 0.082500
0.296037 0.855324 0.082500
0.401381 0.912565 0.082500
0.620363 0.956733 0.082500
1.000000 0.968572 0.082500
0.000000 0.597987 0.082500
0.021730 0.603094 0.082500
0.043267 0.620363 0.082500
0.064120 0.645921 0.082500
0.085312 0.681725 0.082500
0.106623 0.729107 0.082500
0.132377 0.780078 0.082500
0.164436 0.830260 0.082500
0.207652 0.875611 0.082500
0.271759 0.923031 0.082500
0.377888 0.953632 0.082500
0.603094 0.978270 0.082500
1.000000 0.984600 0.082500
0.000000 1.000000 0.082500
0.015400 1.000000 0.082500
0.031428 1.000000 0.082500
0.048293 1.000000 0.082500
0.066576 1.000000 0.082500
0.086957 1.000000 0.082500
0.111964 1.000000 0.082500
0.147052 1.000000 0.082500
0.191798 1.000000 0.082500
0.260305 1.000000 0.082500
0.368479 1.000000 0.082500
0.597987 1.000000 0.082500
1.000000 1.000000 0.082500
0.000000 0.000000 0.165000
0.402014 0.000000 0.165000
0.631521 0.000000 0.165000
0.739695 0.000000 0.165000
0.808202 0.000000 0.165000
0.852948 0.000000 0.165000
0.888036 0.000000 0.165000
0.913043 0.000000 0.165000
0.933424 0.000000 0.165000
0.951707 0.000000 0.165000
0.968572 0.000000 0.165000
0.984600 0.000000 0.165000
1.000000 0.000000 0.165000
0.000000 0.015400 0.165000
0.396907 0.021730 0.165000
0.622112 0.046368 0.165000
0.728240 0.076969 0.165000
0.792348 0.124389 0.165000
0.835564 0.169740 0.165000
0.867623 0.219923 0.165000
0.893377 0.270894 0.165000
0.914688 0.318276 0.165000
0.935880 0.354080 0.165000
0.956733 0.379638 0.165000
0.978270 0.396907 0.165000
1.000000 0.402014 0.165000
0.000000 0.031428 0.165000
0.379638 0.043267 0.165000
[...]
POINT_DATA 845 
VECTORS pos float 
0.000000 0.000000 0.000000
0.402014 0.000000 0.000000
0.631521 0.000000 0.000000
0.739695 0.000000 0.000000
0.808202 0.000000 0.000000
0.852948 0.000000 0.000000
0.888036 0.000000 0.000000
0.913043 0.000000 0.000000
0.933424 0.000000 0.000000
0.951707 0.000000 0.000000
0.968572 0.000000 0.000000
0.984600 0.000000 0.000000
1.000000 0.000000 0.000000
0.000000 0.015400 0.000000
0.396907 0.021730 0.000000
0.622112 0.046368 0.000000
0.728240 0.076969 0.000000
0.792348 0.124389 0.000000
0.835564 0.169740 0.000000
0.867623 0.219923 0.000000
0.893377 0.270894 0.000000
0.914688 0.318276 0.000000
0.935880 0.354080 0.000000
0.956733 0.379638 0.000000
0.978270 0.396907 0.000000
1.000000 0.402014 0.000000
0.000000 0.031428 0.000000
0.379638 0.043267 0.000000
0.598619 0.087435 0.000000
0.703963 0.144676 0.000000
0.761398 0.225751 0.000000
0.800773 0.299171 0.000000
0.823852 0.378787 0.000000
0.841994 0.449289 0.000000
0.857735 0.513245 0.000000
0.881674 0.561553 0.000000
0.912565 0.598619 0.000000
0.953632 0.622112 0.000000
1.000000 0.631521 0.000000
0.000000 0.048293 0.000000
0.354080 0.064120 0.000000
0.561553 0.118326 0.000000
0.661436 0.194094 0.000000
0.709123 0.288758 0.000000
0.739633 0.375281 0.000000
0.747472 0.462888 0.000000
0.758732 0.538070 0.000000
0.770656 0.606812 0.000000
0.805906 0.661436 0.000000
0.855324 0.703963 0.000000
0.923031 0.728241 0.000000
1.000000 0.739695 0.000000
0.000000 0.066576 0.000000
0.318276 0.085312 0.000000
0.513245 0.142265 0.000000
0.606812 0.229344 0.000000
0.648129 0.330084 0.000000
0.664925 0.422888 0.000000
0.659314 0.508792 0.000000
0.663754 0.582547 0.000000
0.669916 0.648129 0.000000
0.711242 0.709123 0.000000
0.774249 0.761398 0.000000
0.875611 0.792348 0.000000
1.000000 0.808202 0.000000
0.000000 0.086957 0.000000
0.270894 0.106623 0.000000
0.449289 0.158006 0.000000
0.538070 0.241268 0.000000
0.582547 0.336246 0.000000
0.589885 0.425862 0.000000
0.579155 0.509668 0.000000
0.574138 0.589885 0.000000
0.577112 0.664925 0.000000
0.624719 0.739633 0.000000
0.700829 0.800773 0.000000
0.830260 0.835564 0.000000
1.000000 0.852948 0.000000
0.000000 0.111964 0.000000
0.219923 0.132377 0.000000
0.378787 0.176148 0.000000
0.462888 0.252528 0.000000
0.508792 0.340686 0.000000
0.509668 0.420845 0.000000
0.500000 0.500000 0.000000
0.490332 0.579155 0.000000
0.491208 0.659314 0.000000
0.537112 0.747472 0.000000
0.621213 0.823852 0.000000
0.780078 0.867623 0.000000
1.000000 0.888036 0.000000
0.000000 0.147052 0.000000
0.169740 0.164436 0.000000
0.299171 0.199227 0.000000
0.375281 0.260367 0.000000
0.422888 0.335075 0.000000
0.425862 0.410115 0.000000
0.420845 0.490332 0.000000
0.410115 0.574138 0.000000
0.417453 0.663754 0.000000
0.461930 0.758732 0.000000
0.550711 0.841994 0.000000
0.729107 0.893377 0.000000
1.000000 0.913043 0.000000
0.000000 0.191798 0.000000
0.124389 0.207652 0.000000
0.225751 0.238602 0.000000
0.288757 0.290877 0.000000
0.330084 0.351870 0.000000
0.336247 0.417453 0.000000
0.340686 0.491208 0.000000
0.335075 0.577112 0.000000
0.351870 0.669916 0.000000
0.393188 0.770656 0.000000
0.486755 0.857735 0.000000
0.681725 0.914688 0.000000
1.000000 0.933424 0.000000
0.000000 0.260305 0.000000
0.076969 0.271759 0.000000
0.144676 0.296037 0.000000
0.194094 0.338564 0.000000
0.229344 0.393188 0.000000
0.241268 0.461930 0.000000
0.252528 0.537112 0.000000
0.260367 0.624719 0.000000
0.290877 0.711243 0.000000
0.338564 0.805906 0.000000
0.438446 0.881674 0.000000
0.645921 0.935880 0.000000
1.000000 0.951707 0.000000
0.000000 0.368479 0.000000
0.046368 0.377888 0.000000
0.087435 0.401381 0.000000
0.118326 0.438446 0.000000
0.142265 0.486755 0.000000
0.158006 0.550711 0.000000
0.176148 0.621213 0.000000
0.199227 0.700829 0.000000
0.238602 0.774249 0.000000
0.296037 0.855324 0.000000
0.401381 0.912565 0.000000
0.620363 0.956733 0.000000
1.000000 0.968572 0.000000
0.000000 0.597987 0.000000
0.021730 0.603094 0.000000
0.043267 0.620363 0.000000
0.064120 0.645921 0.000000
0.085312 0.681725 0.000000
0.106623 0.729107 0.000000
0.132377 0.780078 0.000000
0.164436 0.830260 0.000000
0.207652 0.875611 0.000000
0.271759 0.923031 0.000000
0.377888 0.953632 0.000000
0.603094 0.978270 0.000000
1.000000 0.984600 0.000000
0.000000 1.000000 0.000000
0.015400 1.000000 0.000000
0.031428 1.000000 0.000000
0.048293 1.000000 0.000000
0.066576 1.000000 0.000000
0.086957 1.000000 0.000000
0.111964 1.000000 0.000000
0.147052 1.000000 0.000000
0.191798 1.000000 0.000000
0.260305 1.000000 0.000000
0.368479 1.000000 0.000000
0.597987 1.000000 0.000000
1.000000 1.000000 0.000000
0.000000 0.000000 0.082500
0.402014 0.000000 0.082500
0.631521 0.000000 0.082500
0.739695 0.000000 0.082500
0.808202 0.000000 0.082500
0.852948 0.000000 0.082500
0.888036 0.000000 0.082500
0.913043 0.000000 0.082500
0.933424 0.000000 0.082500
0.951707 0.000000 0.082500
0.968572 0.000000 0.082500
0.984600 0.000000 0.082500
1.000000 0.000000 0.082500
0.000000 0.015400 0.082500
0.396907 0.021730 0.082500
0.622112 0.046368 0.082500
0.728240 0.076969 0.082500
0.792348 0.124389 0.082500
0.835564 0.169740 0.082500
0.867623 0.219923 0.082500
0.893377 0.270894 0.082500
0.914688 0.318276 0.082500
0.935880 0.354080 0.082500
0.956733 0.379638 0.082500
0.978270 0.396907 0.082500
1.000000 0.402014 0.082500
0.000000 0.031428 0.082500
0.379638 0.043267 0.082500
0.598619 0.087435 0.082500
0.703963 0.144676 0.082500
0.761398 0.225751 0.082500
0.800773 0.299171 0.082500
0.823852 0.378787 0.082500
0.841994 0.449289 0.082500
0.857735 0.513245 0.082500
0.881674 0.561553 0.082500
0.912565 0.598619 0.082500
0.953632 0.622112 0.082500
1.000000 0.631521 0.082500
0.000000 0.048293 0.082500
0.354080 0.064120 0.082500
0.561553 0.118326 0.082500
0.661436 0.194094 0.082500
0.709123 0.288758 0.082500
0.739633 0.375281 0.082500
0.747472 0.462888 0.082500
0.758732 0.538070 0.082500
0.770656 0.606812 0.082500
0.805906 0.661436 0.082500
0.855324 0.703963 0.082500
0.923031 0.728241 0.082500
1.000000 0.739695 0.082500
0.000000 0.066576 0.082500
0.318276 0.085312 0.082500
0.513245 0.142265 0.082500
0.606812 0.229344 0.082500
0.648129 0.330084 0.082500
0.664925 0.422888 0.082500
0.659314 0.508792 0.082500
0.663754 0.582547 0.082500
0.669916 0.648129 0.082500
0.711242 0.709123 0.082500
0.774249 0.761398 0.082500
0.875611 0.792348 0.082500
1.000000 0.808202 0.082500
0.000000 0.086957 0.082500
0.270894 0.106623 0.082500
0.449289 0.158006 0.082500
0.538070 0.241268 0.082500
0.582547 0.336246 0.082500
0.589885 0.425862 0.082500
0.579155 0.509668 0.082500
0.574138 0.589885 0.082500
0.577112 0.664925 0.082500
0.624719 0.739633 0.082500
0.700829 0.800773 0.082500
0.830260 0.835564 0.082500
1.000000 0.852948 0.082500
0.000000 0.111964 0.082500
0.219923 0.132377 0.082500
0.378787 0.176148 0.082500
0.462888 0.252528 0.082500
0.508792 0.340686 0.082500
0.509668 0.420845 0.082500
0.500000 0.500000 0.082500
0.490332 0.579155 0.082500
0.491208 0.659314 0.082500
0.537112 0.747472 0.082500
0.621213 0.823852 0.082500
0.780078 0.867623 0.082500
1.000000 0.888036 0.082500
0.000000 0.147052 0.082500
0.169740 0.164436 0.082500
0.299171 0.199227 0.082500
0.375281 0.260367 0.082500
0.422888 0.335075 0.082500
0.425862 0.410115 0.082500
0.420845 0.490332 0.082500
0.410115 0.574138 0.082500
0.417453 0.663754 0.082500
0.461930 0.758732 0.082500
0.550711 0.841994 0.082500
0.729107 0.893377 0.082500
1.000000 0.913043 0.082500
0.000000 0.191798 0.082500
0.124389 0.207652 0.082500
0.225751 0.238602 0.082500
0.288757 0.290877 0.082500
0.330084 0.351870 0.082500
0.336247 0.417453 0.082500
0.340686 0.491208 0.082500
0.335075 0.577112 0.082500
0.351870 0.669916 0.082500
0.393188 0.770656 0.082500
0.486755 0.857735 0.082500
0.681725 0.914688 0.082500
1.000000 0.933424 0.082500
0.000000 0.260305 0.082500
0.076969 0.271759 0.082500
0.144676 0.296037 0.082500
0.194094 0.338564 0.082500
0.229344 0.393188 0.082500
0.241268 0.461930 0.082500
0.252528 0.537112 0.082500
0.260367 0.624719 0.082500
0.290877 0.711243 0.082500
0.338564 0.805906 0.082500
0.438446 0.881674 0.082500
0.645921 0.935880 0.082500
1.000000 0.951707 0.082500
0.000000 0.368479 0.082500
0.046368 0.377888 0.082500
0.087435 0.401381 0.082500
0.118326 0.438446 0.082500
0.142265 0.486755 0.082500
0.158006 0.550711 0.082500
0.176148 0.621213 0.082500
0.199227 0.700829 0.082500
0.238602 0.774249 0.082500
0.296037 0.855324 0.082500
0.401381 0.912565 0.082500
0.620363 0.956733 0.082500
1.000000 0.968572 0.082500
0.000000 0.597987 0.082500
0.021730 0.603094 0.082500
0.043267 0.620363 0.082500
0.064120 0.645921 0.082500
0.085312 0.681725 0.082500
0.106623 0.729107 0.082500
0.132377 0.780078 0.082500
0.164436 0.830260 0.082500
0.207652 0.875611 0.082500
0.271759 0.923031 0.082500
0.377888 0.953632 0.082500
0.603094 0.978270 0.082500
1.000000 0.984600 0.082500
0.000000 1.000000 0.082500
0.015400 1.000000 0.082500
0.031428 1.000000 0.082500
0.048293 1.000000 0.082500
0.066576 1.000000 0.082500
0.086957 1.000000 0.082500
0.111964 1.000000 0.082500
0.147052 1.000000 0.082500
0.191798 1.000000 0.082500
0.260305 1.000000 0.082500
0.368479 1.000000 0.082500
0.597987 1.000000 0.082500
1.000000 1.000000 0.082500
0.000000 0.000000 0.165000
0.402014 0.000000 0.165000
0.631521 0.000000 0.165000
0.739695 0.000000 0.165000
0.808202 0.000000 0.165000
0.852948 0.000000 0.165000
0.888036 0.000000 0.165000
0.913043 0.000000 0.165000
0.933424 0.000000 0.165000
0.951707 0.000000 0.165000
0.968572 0.000000 0.165000
0.984600 0.000000 0.165000
1.000000 0.000000 0.165000
0.000000 0.015400 0.165000
0.396907 0.021730 0.165000
0.622112 0.046368 0.165000
0.728240 0.076969 0.165000
0.792348 0.124389 0.165000
0.835564 0.169740 0.165000
0.867623 0.219923 0.165000
0.893377 0.270894 0.165000
0.914688 0.318276 0.165000
0.935880 0.354080 0.165000
0.956733 0.379638 0.165000
0.978270 0.396907 0.165000
1.000000 0.402014 0.165000
0.000000 0.031428 0.165000
0.379638 0.043267 0.165000
0.598619 0.087435 0.165000
0.703963 0.144676 0.165000
0.761398 0.225751 0.165000
0.800773 0.299171 0.165000
0.823852 0.378787 0.165000
0.841994 0.449289 0.165000
0.857735 0.513245 0.165000
0.881674 0.561553 0.165000
0.912565 0.598619 0.165000
0.953632 0.622112 0.165000
1.000000 0.631521 0.165000
0.000000 0.048293 0.165000
0.354080 0.064120 0.165000
0.561553 0.118326 0.165000
0.661436 0.194094 0.165000
0.709123 0.288758 0.165000
0.739633 0.375281 0.165000
0.747472 0.462888 0.165000
0.758732 0.538070 0.165000
0.770656 0.606812 0.165000
0.805906 0.661436 0.165000
0.855324 0.703963 0.165000
0.923031 0.728241 0.165000
1.000000 0.739695 0.165000
0.000000 0.066576 0.165000
0.318276 0.085312 0.165000
0.513245 0.142265 0.165000
0.606812 0.229344 0.165000
0.648129 0.330084 0.165000
0.664925 0.422888 0.165000
0.659314 0.508792 0.165000
0.663754 0.582547 0.165000
0.669916 0.648129 0.165000
0.711242 0.709123 0.165000
0.774249 0.761398 0.165000
0.875611 0.792348 0.165000
1.000000 0.808202 0.165000
0.000000 0.086957 0.165000
0.270894 0.106623 0.165000
0.449289 0.158006 0.165000
0.538070 0.241268 0.165000
0.582547 0.336246 0.165000
0.589885 0.425862 0.165000
0.579155 0.509668 0.165000
0.574138 0.589885 0.165000
0.577112 0.664925 0.165000
0.624719 0.739633 0.165000
0.700829 0.800773 0.165000
0.830260 0.835564 0.165000
1.000000 0.852948 0.165000
0.000000 0.111964 0.165000
0.219923 0.132377 0.165000
0.378787 0.176148 0.165000
0.462888 0.252528 0.165000
0.508792 0.340686 0.165000
0.509668 0.420845 0.165000
0.500000 0.500000 0.165000
0.490332 0.579155 0.165000
0.491208 0.659314 0.165000
0.537112 0.747472 0.165000
0.621213 0.823852 0.165000
0.780078 0.867623 0.165000
1.000000 0.888036 0.165000
0.000000 0.147052 0.165000
0.169740 0.164436 0.165000
0.299171 0.199227 0.165000
0.375281 0.260367 0.165000
0.422888 0.335075 0.165000
0.425862 0.410115 0.165000
0.420845 0.490332 0.165000
0.410115 0.574138 0.165000
0.417453 0.663754 0.165000
0.461930 0.758732 0.165000
0.550711 0.841994 0.165000
0.729107 0.893377 0.165000
1.000000 0.913043 0.165000
0.000000 0.191798 0.165000
0.124389 0.207652 0.165000
0.225751 0.238602 0.165000
0.288757 0.290877 0.165000
0.330084 0.351870 0.165000
0.336247 0.417453 0.165000
0.340686 0.491208 0.165000
0.335075 0.577112 0.165000
0.351870 0.669916 0.165000
0.393188 0.770656 0.165000
0.486755 0.857735 0.165000
0.681725 0.914688 0.165000
1.000000 0.933424 0.165000
0.000000 0.260305 0.165000
0.076969 0.271759 0.165000
0.144676 0.296037 0.165000
0.194094 0.338564 0.165000
0.229344 0.393188 0.165000
0.241268 0.461930 0.165000
0.252528 0.537112 0.165000
0.260367 0.624719 0.165000
0.290877 0.711243 0.165000
0.338564 0.805906 0.165000
0.438446 0.881674 0.165000
0.645921 0.935880 0.165000
1.000000 0.951707 0.165000
0.000000 0.368479 0.165000
0.046368 0.377888 0.165000
0.087435 0.401381 0.165000
0.118326 0.438446 0.165000
0.142265 0.486755 0.165000
0.158006 0.550711 0.165000
0.176148 0.621213 0.165000
0.199227 0.700829 0.165000
0.238602 0.774249 0.165000
0.296037 0.855324 0.165000
0.401381 0.912565 0.165000
0.620363 0.956733 0.165000
1.000000 0.968572 0.165000
0.000000 0.597987 0.165000
0.021730 0.603094 0.165000
0.043267 0.620363 0.165000
0.064120 0.645921 0.165000
0.085312 0.681725 0.165000
0.106623 0.729107 0.165000
0.132377 0.780078 0.165000
0.164436 0.830260 0.165000
0.207652 0.875611 0.165000
0.271759 0.923031 0.165000
0.377888 0.953632 0.165000
0.603094 0.978270 0.165000
1.000000 0.984600 0.165000
0.000000 1.000000 0.165000
0.015400 1.000000 0.165000
0.031428 1.000000 0.165000
0.048293 1.000000 0.165000
0.066576 1.000000 0.165000
0.086957 1.000000 0.165000
0.111964 1.000000 0.165000
0.147052 1.000000 0.165000
0.191798 1.000000 0.165000
0.260305 1.000000 0.165000
0.368479 1.000000 0.165000
0.597987 1.000000 0.165000
1.000000 1.000000 0.165000
0.000000 0.000000 0.247500
0.402014 0.000000 0.247500
0.631521 0.000000 0.247500
0.739695 0.000000 0.247500
0.808202 0.000000 0.247500
0.852948 0.000000 0.247500
0.888036 0.000000 0.247500
0.913043 0.000000 0.247500
0.933424 0.000000 0.247500
0.951707 0.000000 0.247500
0.968572 0.000000 0.247500
0.984600 0.000000 0.247500
1.000000 0.000000 0.247500
0.000000 0.015400 0.247500
0.396907 0.021730 0.247500
0.622112 0.046368 0.247500
0.728240 0.076969 0.247500
0.792348 0.124389 0.247500
0.835564 0.169740 0.247500
0.867623 0.219923 0.247500
0.893377 0.270894 0.247500
0.914688 0.318276 0.247500
0.935880 0.354080 0.247500
0.956733 0.379638 0.247500
0.978270 0.396907 0.247500
1.000000 0.402014 0.247500
0.000000 0.031428 0.247500
0.379638 0.043267 0.247500
0.598619 0.087435 0.247500
0.703963 0.144676 0.247500
0.761398 0.225751 0.247500
0.800773 0.299171 0.247500
0.823852 0.378787 0.247500
0.841994 0.449289 0.247500
0.857735 0.513245 0.247500
0.881674 0.561553 0.247500
0.912565 0.598619 0.247500
0.953632 0.622112 0.247500
1.000000 0.631521 0.247500
0.000000 0.048293 0.247500
0.354080 0.064120 0.247500
0.561553 0.118326 0.247500
0.661436 0.194094 0.247500
0.709123 0.288758 0.247500
0.739633 0.375281 0.247500
0.747472 0.462888 0.247500
0.758732 0.538070 0.247500
0.770656 0.606812 0.247500
0.805906 0.661436 0.247500
0.855324 0.703963 0.247500
0.923031 0.728241 0.247500
1.000000 0.739695 0.247500
0.000000 0.066576 0.247500
0.318276 0.085312 0.247500
0.513245 0.142265 0.247500
0.606812 0.229344 0.247500
0.648129 0.330084 0.247500
0.664925 0.422888 0.247500
0.659314 0.508792 0.247500
0.663754 0.582547 0.247500
0.669916 0.648129 0.247500
0.711242 0.709123 0.247500
0.774249 0.761398 0.247500
0.875611 0.792348 0.247500
1.000000 0.808202 0.247500
0.000000 0.086957 0.247500
0.270894 0.106623 0.247500
0.449289 0.158006 0.247500
0.538070 0.241268 0.247500
0.582547 0.336246 0.247500
0.589885 0.425862 0.247500
0.579155 0.509668 0.247500
0.574138 0.589885 0.247500
0.577112 0.664925 0.247500
0.624719 0.739633 0.247500
0.700829 0.800773 0.247500
0.830260 0.835564 0.247500
1.000000 0.852948 0.247500
0.000000 0.111964 0.247500
0.219923 0.132377 0.247500
0.378787 0.176148 0.247500
0.462888 0.252528 0.247500
0.508792 0.340686 0.247500
0.509668 0.420845 0.247500
0.500000 0.500000 0.247500
0.490332 0.579155 0.247500
0.491208 0.659314 0.247500
0.537112 0.747472 0.247500
0.621213 0.823852 0.247500
0.780078 0.867623 0.247500
1.000000 0.888036 0.247500
0.000000 0.147052 0.247500
0.169740 0.164436 0.247500
0.299171 0.199227 0.247500
0.375281 0.260367 0.247500
0.422888 0.335075 0.247500
0.425862 0.410115 0.247500
0.420845 0.490332 0.247500
0.410115 0.574138 0.247500
0.417453 0.663754 0.247500
0.461930 0.758732 0.247500
0.550711 0.841994 0.247500
0.729107 0.893377 0.247500
1.000000 0.913043 0.247500
0.000000 0.191798 0.247500
0.124389 0.207652 0.247500
0.225751 0.238602 0.247500
0.288757 0.290877 0.247500
0.330084 0.351870 0.247500
0.336247 0.417453 0.247500
0.340686 0.491208 0.247500
0.335075 0.577112 0.247500
0.351870 0.669916 0.247500
0.393188 0.770656 0.247500
0.486755 0.857735 0.247500
0.681725 0.914688 0.247500
1.000000 0.933424 0.247500
0.000000 0.260305 0.247500
0.076969 0.271759 0.247500
0.144676 0.296037 0.247500
0.194094 0.338564 0.247500
0.229344 0.393188 0.247500
0.241268 0.461930 0.247500
0.252528 0.537112 0.247500
0.260367 0.624719 0.247500
0.290877 0.711243 0.247500
0.338564 0.805906 0.247500
0.438446 0.881674 0.247500
0.645921 0.935880 0.247500
1.000000 0.951707 0.247500
0.000000 0.368479 0.247500
0.046368 0.377888 0.247500
0.087435 0.401381 0.247500
0.118326 0.438446 0.247500
0.142265 0.486755 0.247500
0.158006 0.550711 0.247500
0.176148 0.621213 0.247500
0.199227 0.700829 0.247500
0.238602 0.774249 0.247500
0.296037 0.855324 0.247500
0.401381 0.912565 0.247500
0.620363 0.956733 0.247500
1.000000 0.968572 0.247500
0.000000 0.597987 0.247500
0.021730 0.603094 0.247500
0.043267 0.620363 0.247500
0.064120 0.645921 0.247500
0.085312 0.681725 0.247500
0.106623 0.729107 0.247500
0.132377 0.780078 0.247500
0.164436 0.830260 0.247500
0.207652 0.875611 0.247500
0.271759 0.923031 0.247500
0.377888 0.953632 0.247500
0.603094 0.978270 0.247500
1.000000 0.984600 0.247500
0.000000 1.000000 0.247500
0.015400 1.000000 0.247500
0.031428 1.000000 0.247500
0.048293 1.000000 0.247500
0.066576 1.000000 0.247500
0.086957 1.000000 0.247500
0.111964 1.000000 0.247500
0.147052 1.000000 0.247500
0.191798 1.000000 0.247500
0.260305 1.000000 0.247500
0.368479 1.000000 0.247500
0.597987 1.000000 0.247500
1.000000 1.000000 0.247500
0.000000 0.000000 0.330000
0.402014 0.000000 0.330000
0.631521 0.000000 0.330000
0.739695 0.000000 0.330000
0.808202 0.000000 0.330000
0.852948 0.000000 0.330000
0.888036 0.000000 0.330000
0.913043 0.000000 0.330000
0.933424 0.000000 0.330000
0.951707 0.000000 0.330000
0.968572 0.000000 0.330000
0.984600 0.000000 0.330000
1.000000 0.000000 0.330000
0.000000 0.015400 0.330000
0.396907 0.021730 0.330000
0.622112 0.046368 0.330000
0.728240 0.076969 0.330000
0.792348 0.124389 0.330000
0.835564 0.169740 0.330000
0.867623 0.219923 0.330000
0.893377 0.270894 0.330000
0.914688 0.318276 0.330000
0.935880 0.354080 0.330000
0.956733 0.379638 0.330000
0.978270 0.396907 0.330000
1.000000 0.402014 0.330000
0.000000 0.031428 0.330000
0.379638 0.043267 0.330000
0.598619 0.087435 0.330000
0.703963 0.144676 0.330000
0.761398 0.225751 0.330000
0.800773 0.299171 0.330000
0.823852 0.378787 0.330000
0.841994 0.449289 0.330000
0.857735 0.513245 0.330000
0.881674 0.561553 0.330000
0.912565 0.598619 0.330000
0.953632 0.622112 0.330000
1.000000 0.631521 0.330000
0.000000 0.048293 0.330000
0.354080 0.064120 0.330000
0.561553 0.118326 0.330000
0.661436 0.194094 0.330000
0.709123 0.288758 0.330000
0.739633 0.375281 0.330000
0.747472 0.462888 0.330000
0.758732 0.538070 0.330000
0.770656 0.606812 0.330000
0.805906 0.661436 0.330000
0.855324 0.703963 0.330000
0.923031 0.728241 0.330000
1.000000 0.739695 0.330000
0.000000 0.066576 0.330000
0.318276 0.085312 0.330000
0.513245 0.142265 0.330000
0.606812 0.229344 0.330000
0.648129 0.330084 0.330000
0.664925 0.422888 0.330000
0.659314 0.508792 0.330000
0.663754 0.582547 0.330000
0.669916 0.648129 0.330000
0.711242 0.709123 0.330000
0.774249 0.761398 0.330000