# vtk DataFile Version 2.0
Mesh for Fierro
ASCII 
DATASET UNSTRUCTURED_GRID

POINTS 845 float
0.000000 0.000000 0.000000
0.088629 0.000000 0.000000
0.176929 0.000000 0.000000
0.264373 0.000000 0.000000
0.351171 0.000000 0.000000
0.436067 0.000000 0.000000
0.519944 0.000000 0.000000
0.602509 0.000000 0.000000
0.683430 0.000000 0.000000
0.763940 0.000000 0.000000
0.843076 0.000000 0.000000
0.921744 0.000000 0.000000
1.000000 0.000000 0.000000
0.000000 0.078256 0.000000
0.088452 0.078433 0.000000
0.176587 0.078951 0.000000
0.263889 0.079776 0.000000
0.350576 0.080853 0.000000
0.435407 0.082106 0.000000
0.519265 0.083444 0.000000
0.601851 0.084782 0.000000
0.682841 0.086034 0.000000
0.763455 0.087110 0.000000
0.842734 0.087934 0.000000
0.921567 0.088452 0.000000
1.000000 0.088629 0.000000
0.000000 0.156924 0.000000
0.087934 0.157266 0.000000
0.175587 0.158266 0.000000
0.262474 0.159858 0.000000
0.348848 0.161933 0.000000
0.433480 0.164342 0.000000
0.517271 0.166919 0.000000
0.599921 0.169503 0.000000
0.681110 0.171916 0.000000
0.762039 0.173993 0.000000
0.841734 0.175587 0.000000
0.921049 0.176587 0.000000
1.000000 0.176929 0.000000
0.000000 0.236060 0.000000
0.087110 0.236545 0.000000
0.173993 0.237961 0.000000
0.260222 0.240216 0.000000
0.346088 0.243157 0.000000
0.430413 0.246572 0.000000
0.514103 0.250227 0.000000
0.596854 0.253877 0.000000
0.678360 0.257286 0.000000
0.759784 0.260222 0.000000
0.840142 0.262474 0.000000
0.920224 0.263889 0.000000
1.000000 0.264373 0.000000
0.000000 0.316570 0.000000
0.086034 0.317159 0.000000
0.171916 0.318890 0.000000
0.257286 0.321640 0.000000
0.342499 0.325225 0.000000
0.426414 0.329390 0.000000
0.509968 0.333854 0.000000
0.592854 0.338331 0.000000
0.674775 0.342499 0.000000
0.756843 0.346088 0.000000
0.838067 0.348848 0.000000
0.919147 0.350576 0.000000
1.000000 0.351171 0.000000
0.000000 0.397491 0.000000
0.084782 0.398149 0.000000
0.169503 0.400079 0.000000
0.253877 0.403146 0.000000
0.338331 0.407146 0.000000
0.421769 0.411792 0.000000
0.505162 0.416780 0.000000
0.588208 0.421769 0.000000
0.670610 0.426414 0.000000
0.753428 0.430413 0.000000
0.835658 0.433480 0.000000
0.917895 0.435407 0.000000
1.000000 0.436067 0.000000
0.000000 0.480056 0.000000
0.083444 0.480735 0.000000
0.166919 0.482729 0.000000
0.250227 0.485897 0.000000
0.333854 0.490032 0.000000
0.416780 0.494838 0.000000
0.500000 0.500000 0.000000
0.583220 0.505162 0.000000
0.666146 0.509968 0.000000
0.749773 0.514103 0.000000
0.833081 0.517271 0.000000
0.916556 0.519265 0.000000
1.000000 0.519944 0.000000
0.000000 0.563933 0.000000
0.082106 0.564593 0.000000
0.164342 0.566520 0.000000
0.246572 0.569587 0.000000
0.329390 0.573586 0.000000
0.411792 0.578231 0.000000
0.494838 0.583220 0.000000
0.578231 0.588208 0.000000
0.661669 0.592854 0.000000
0.746123 0.596854 0.000000
0.830497 0.599921 0.000000
0.915218 0.601851 0.000000
1.000000 0.602509 0.000000
0.000000 0.648829 0.000000
0.080853 0.649424 0.000000
0.161933 0.651152 0.000000
0.243157 0.653912 0.000000
0.325225 0.657501 0.000000
0.407146 0.661669 0.000000
0.490032 0.666146 0.000000
0.573586 0.670610 0.000000
0.657501 0.674775 0.000000
0.742714 0.678360 0.000000
0.828084 0.681110 0.000000
0.913966 0.682841 0.000000
1.000000 0.683430 0.000000
0.000000 0.735627 0.000000
0.079776 0.736111 0.000000
0.159858 0.737526 0.000000
0.240216 0.739778 0.000000
0.321640 0.742714 0.000000
0.403146 0.746123 0.000000
0.485897 0.749773 0.000000
0.569587 0.753428 0.000000
0.653912 0.756843 0.000000
0.739778 0.759784 0.000000
0.826007 0.762039 0.000000
0.912890 0.763455 0.000000
1.000000 0.763940 0.000000
0.000000 0.823071 0.000000
0.078951 0.823413 0.000000
0.158266 0.824413 0.000000
0.237961 0.826007 0.000000
0.318890 0.828084 0.000000
0.400079 0.830497 0.000000
0.482729 0.833081 0.000000
0.566520 0.835658 0.000000
0.651152 0.838067 0.000000
0.737526 0.840142 0.000000
0.824413 0.841734 0.000000
0.912066 0.842734 0.000000
1.000000 0.843076 0.000000
0.000000 0.911371 0.000000
0.078433 0.911548 0.000000
0.157266 0.912066 0.000000
0.236545 0.912890 0.000000
0.317159 0.913966 0.000000
0.398149 0.915218 0.000000
0.480735 0.916556 0.000000
0.564593 0.917895 0.000000
0.649424 0.919147 0.000000
0.736111 0.920224 0.000000
0.823413 0.921049 0.000000
0.911548 0.921567 0.000000
1.000000 0.921744 0.000000
0.000000 1.000000 0.000000
0.078256 1.000000 0.000000
0.156924 1.000000 0.000000
0.236060 1.000000 0.000000
0.316570 1.000000 0.000000
0.397491 1.000000 0.000000
0.480056 1.000000 0.000000
0.563933 1.000000 0.000000
0.648829 1.000000 0.000000
0.735627 1.000000 0.000000
0.823071 1.000000 0.000000
0.911371 1.000000 0.000000
1.000000 1.000000 0.000000
0.000000 0.000000 0.082500
0.088629 0.000000 0.082500
0.176929 0.000000 0.082500
0.264373 0.000000 0.082500
0.351171 0.000000 0.082500
0.436067 0.000000 0.082500
0.519944 0.000000 0.082500
0.602509 0.000000 0.082500
0.683430 0.000000 0.082500
0.763940 0.000000 0.082500
0.843076 0.000000 0.082500
0.921744 0.000000 0.082500
1.000000 0.000000 0.082500
0.000000 0.078256 0.082500
0.088452 0.078433 0.082500
0.176587 0.078951 0.082500
0.263889 0.079776 0.082500
0.350576 0.080853 0.082500
0.435407 0.082106 0.082500
0.519265 0.083444 0.082500
0.601851 0.084782 0.082500
0.682841 0.086034 0.082500
0.763455 0.087110 0.082500
0.842734 0.087934 0.082500
0.921567 0.088452 0.082500
1.000000 0.088629 0.082500
0.000000 0.156924 0.082500
0.087934 0.157266 0.082500
0.175587 0.158266 0.082500
0.262474 0.159858 0.082500
0.348848 0.161933 0.082500
0.433480 0.164342 0.082500
0.517271 0.166919 0.082500
0.599921 0.169503 0.082500
0.681110 0.171916 0.082500
0.762039 0.173993 0.082500
0.841734 0.175587 0.082500
0.921049 0.176587 0.082500
1.000000 0.176929 0.082500
0.000000 0.236060 0.082500
0.087110 0.236545 0.082500
0.173993 0.237961 0.082500
0.260222 0.240216 0.082500
0.346088 0.243157 0.082500
0.430413 0.246572 0.082500
0.514103 0.250227 0.082500
0.596854 0.253877 0.082500
0.678360 0.257286 0.082500
0.759784 0.260222 0.082500
0.840142 0.262474 0.082500
0.920224 0.263889 0.082500
1.000000 0.264373 0.082500
0.000000 0.316570 0.082500
0.086034 0.317159 0.082500
0.171916 0.318890 0.082500
0.257286 0.321640 0.082500
0.342499 0.325225 0.082500
0.426414 0.329390 0.082500
0.509968 0.333854 0.082500
0.592854 0.338331 0.082500
0.674775 0.342499 0.082500
0.756843 0.346088 0.082500
0.838067 0.348848 0.082500
0.919147 0.350576 0.082500
1.000000 0.351171 0.082500
0.000000 0.397491 0.082500
0.084782 0.398149 0.082500
0.169503 0.400079 0.082500
0.253877 0.403146 0.082500
0.338331 0.407146 0.082500
0.421769 0.411792 0.082500
0.505162 0.416780 0.082500
0.588208 0.421769 0.082500
0.670610 0.426414 0.082500
0.753428 0.430413 0.082500
0.835658 0.433480 0.082500
0.917895 0.435407 0.082500
1.000000 0.436067 0.082500
0.000000 0.480056 0.082500
0.083444 0.480735 0.082500
0.166919 0.482729 0.082500
0.250227 0.485897 0.082500
0.333854 0.490032 0.082500
0.416780 0.494838 0.082500
0.500000 0.500000 0.082500
0.583220 0.505162 0.082500
0.666146 0.509968 0.082500
0.749773 0.514103 0.082500
0.833081 0.517271 0.082500
0.916556 0.519265 0.082500
1.000000 0.519944 0.082500
0.000000 0.563933 0.082500
0.082106 0.564593 0.082500
0.164342 0.566520 0.082500
0.246572 0.569587 0.082500
0.329390 0.573586 0.082500
0.411792 0.578231 0.082500
0.494838 0.583220 0.082500
0.578231 0.588208 0.082500
0.661669 0.592854 0.082500
0.746123 0.596854 0.082500
0.830497 0.599921 0.082500
0.915218 0.601851 0.082500
1.000000 0.602509 0.082500
0.000000 0.648829 0.082500
0.080853 0.649424 0.082500
0.161933 0.651152 0.082500
0.243157 0.653912 0.082500
0.325225 0.657501 0.082500
0.407146 0.661669 0.082500
0.490032 0.666146 0.082500
0.573586 0.670610 0.082500
0.657501 0.674775 0.082500
0.742714 0.678360 0.082500
0.828084 0.681110 0.082500
0.913966 0.682841 0.082500
1.000000 0.683430 0.082500
0.000000 0.735627 0.082500
0.079776 0.736111 0.082500
0.159858 0.737526 0.082500
0.240216 0.739778 0.082500
0.321640 0.742714 0.082500
0.403146 0.746123 0.082500
0.485897 0.749773 0.082500
0.569587 0.753428 0.082500
0.653912 0.756843 0.082500
0.739778 0.759784 0.082500
0.826007 0.762039 0.082500
0.912890 0.763455 0.082500
1.000000 0.763940 0.082500
0.000000 0.823071 0.082500
0.078951 0.823413 0.082500
0.158266 0.824413 0.082500
0.237961 0.826007 0.082500
0.318890 0.828084 0.082500
0.400079 0.830497 0.082500
0.482729 0.833081 0.082500
0.566520 0.835658 0.082500
0.651152 0.838067 0.082500
0.737526 0.840142 0.082500
0.824413 0.841734 0.082500
0.912066 0.842734 0.082500
1.000000 0.843076 0.082500
0.000000 0.911371 0.082500
0.078433 0.911548 0.082500
0.157266 0.912066 0.082500
0.236545 0.912890 0.082500
0.317159 0.913966 0.082500
0.398149 0.915218 0.082500
0.480735 0.916556 0.082500
0.564593 0.917895 0.082500
0.649424 0.919147 0.082500
0.736111 0.920224 0.082500
0.823413 0.921049 0.082500
0.911548 0.921567 0.082500
1.000000 0.921744 0.082500
0.000000 1.000000 0.082500
0.078256 1.000000 0.082500
0.156924 1.000000 0.082500
0.236060 1.000000 0.082500
0.316570 1.000000 0.082500
0.397491 1.000000 0.082500
0.480056 1.000000 0.082500
0.563933 1.000000 0.082500
0.648829 1.000000 0.082500
0.735627 1.000000 0.082500
0.823071 1.000000 0.082500
0.911371 1.000000 0.082500
1.000000 1.000000 0.082500
0.000000 0.000000 0.165000
0.088629 0.000000 0.165000
0.176929 0.000000 0.165000
0.264373 0.000000 0.165000
0.351171 0.000000 0.165000
0.436067 0.000000 0.165000
0.519944 0.000000 0.165000
0.602509 0.000000 0.165000
0.683430 0.000000 0.165000
0.763940 0.000000 0.165000
0.843076 0.000000 0.165000
0.921744 0.000000 0.165000
1.000000 0.000000 0.165000
0.000000 0.078256 0.165000
0.088452 0.078433 0.165000
0.176587 0.078951 0.165000
0.263889 0.079776 0.165000
0.350576 0.080853 0.165000
0.435407 0.082106 0.165000
0.519265 0.083444 0.165000
0.601851 0.084782 0.165000
0.682841 0.086034 0.165000
0.763455 0.087110 0.165000
0.842734 0.087934 0.165000
0.921567 0.088452 0.165000
1.000000 0.088629 0.165000
0.000000 0.156924 0.165000
0.087934 0.157266 0.165000
[...]
POINT_DATA 845 
VECTORS pos float 
0.000000 0.000000 0.000000
0.088629 0.000000 0.000000
0.176929 0.000000 0.000000
0.264373 0.000000 0.000000
0.351171 0.000000 0.000000
0.436067 0.000000 0.000000
0.519944 0.000000 0.000000
0.602509 0.000000 0.000000
0.683430 0.000000 0.000000
0.763940 0.000000 0.000000
0.843076 0.000000 0.000000
0.921744 0.000000 0.000000
1.000000 0.000000 0.000000
0.000000 0.078256 0.000000
0.088452 0.078433 0.000000
0.176587 0.078951 0.000000
0.263889 0.079776 0.000000
0.350576 0.080853 0.000000
0.435407 0.082106 0.000000
0.519265 0.083444 0.000000
0.601851 0.084782 0.000000
0.682841 0.086034 0.000000
0.763455 0.087110 0.000000
0.842734 0.087934 0.000000
0.921567 0.088452 0.000000
1.000000 0.088629 0.000000
0.000000 0.156924 0.000000
0.087934 0.157266 0.000000
0.175587 0.158266 0.000000
0.262474 0.159858 0.000000
0.348848 0.161933 0.000000
0.433480 0.164342 0.000000
0.517271 0.166919 0.000000
0.599921 0.169503 0.000000
0.681110 0.171916 0.000000
0.762039 0.173993 0.000000
0.841734 0.175587 0.000000
0.921049 0.176587 0.000000
1.000000 0.176929 0.000000
0.000000 0.236060 0.000000
0.087110 0.236545 0.000000
0.173993 0.237961 0.000000
0.260222 0.240216 0.000000
0.346088 0.243157 0.000000
0.430413 0.246572 0.000000
0.514103 0.250227 0.000000
0.596854 0.253877 0.000000
0.678360 0.257286 0.000000
0.759784 0.260222 0.000000
0.840142 0.262474 0.000000
0.920224 0.263889 0.000000
1.000000 0.264373 0.000000
0.000000 0.316570 0.000000
0.086034 0.317159 0.000000
0.171916 0.318890 0.000000
0.257286 0.321640 0.000000
0.342499 0.325225 0.000000
0.426414 0.329390 0.000000
0.509968 0.333854 0.000000
0.592854 0.338331 0.000000
0.674775 0.342499 0.000000
0.756843 0.346088 0.000000
0.838067 0.348848 0.000000
0.919147 0.350576 0.000000
1.000000 0.351171 0.000000
0.000000 0.397491 0.000000
0.084782 0.398149 0.000000
0.169503 0.400079 0.000000
0.253877 0.403146 0.000000
0.338331 0.407146 0.000000
0.421769 0.411792 0.000000
0.505162 0.416780 0.000000
0.588208 0.421769 0.000000
0.670610 0.426414 0.000000
0.753428 0.430413 0.000000
0.835658 0.433480 0.000000
0.917895 0.435407 0.000000
1.000000 0.436067 0.000000
0.000000 0.480056 0.000000
0.083444 0.480735 0.000000
0.166919 0.482729 0.000000
0.250227 0.485897 0.000000
0.333854 0.490032 0.000000
0.416780 0.494838 0.000000
0.500000 0.500000 0.000000
0.583220 0.505162 0.000000
0.666146 0.509968 0.000000
0.749773 0.514103 0.000000
0.833081 0.517271 0.000000
0.916556 0.519265 0.000000
1.000000 0.519944 0.000000
0.000000 0.563933 0.000000
0.082106 0.564593 0.000000
0.164342 0.566520 0.000000
0.246572 0.569587 0.000000
0.329390 0.573586 0.000000
0.411792 0.578231 0.000000
0.494838 0.583220 0.000000
0.578231 0.588208 0.000000
0.661669 0.592854 0.000000
0.746123 0.596854 0.000000
0.830497 0.599921 0.000000
0.915218 0.601851 0.000000
1.000000 0.602509 0.000000
0.000000 0.648829 0.000000
0.080853 0.649424 0.000000
0.161933 0.651152 0.000000
0.243157 0.653912 0.000000
0.325225 0.657501 0.000000
0.407146 0.661669 0.000000
0.490032 0.666146 0.000000
0.573586 0.670610 0.000000
0.657501 0.674775 0.000000
0.742714 0.678360 0.000000
0.828084 0.681110 0.000000
0.913966 0.682841 0.000000
1.000000 0.683430 0.000000
0.000000 0.735627 0.000000
0.079776 0.736111 0.000000
0.159858 0.737526 0.000000
0.240216 0.739778 0.000000
0.321640 0.742714 0.000000
0.403146 0.746123 0.000000
0.485897 0.749773 0.000000
0.569587 0.753428 0.000000
0.653912 0.756843 0.000000
0.739778 0.759784 0.000000
0.826007 0.762039 0.000000
0.912890 0.763455 0.000000
1.000000 0.763940 0.000000
0.000000 0.823071 0.000000
0.078951 0.823413 0.000000
0.158266 0.824413 0.000000
0.237961 0.826007 0.000000
0.318890 0.828084 0.000000
0.400079 0.830497 0.000000
0.482729 0.833081 0.000000
0.566520 0.835658 0.000000
0.651152 0.838067 0.000000
0.737526 0.840142 0.000000
0.824413 0.841734 0.000000
0.912066 0.842734 0.000000
1.000000 0.843076 0.000000
0.000000 0.911371 0.000000
0.078433 0.911548 0.000000
0.157266 0.912066 0.000000
0.236545 0.912890 0.000000
0.317159 0.913966 0.000000
0.398149 0.915218 0.000000
0.480735 0.916556 0.000000
0.564593 0.917895 0.000000
0.649424 0.919147 0.000000
0.736111 0.920224 0.000000
0.823413 0.921049 0.000000
0.911548 0.921567 0.000000
1.000000 0.921744 0.000000
0.000000 1.000000 0.000000
0.078256 1.000000 0.000000
0.156924 1.000000 0.000000
0.236060 1.000000 0.000000
0.316570 1.000000 0.000000
0.397491 1.000000 0.000000
0.480056 1.000000 0.000000
0.563933 1.000000 0.000000
0.648829 1.000000 0.000000
0.735627 1.000000 0.000000
0.823071 1.000000 0.000000
0.911371 1.000000 0.000000
1.000000 1.000000 0.000000
0.000000 0.000000 0.082500
0.088629 0.000000 0.082500
0.176929 0.000000 0.082500
0.264373 0.000000 0.082500
0.351171 0.000000 0.082500
0.436067 0.000000 0.082500
0.519944 0.000000 0.082500
0.602509 0.000000 0.082500
0.683430 0.000000 0.082500
0.763940 0.000000 0.082500
0.843076 0.000000 0.082500
0.921744 0.000000 0.082500
1.000000 0.000000 0.082500
0.000000 0.078256 0.082500
0.088452 0.078433 0.082500
0.176587 0.078951 0.082500
0.263889 0.079776 0.082500
0.350576 0.080853 0.082500
0.435407 0.082106 0.082500
0.519265 0.083444 0.082500
0.601851 0.084782 0.082500
0.682841 0.086034 0.082500
0.763455 0.087110 0.082500
0.842734 0.087934 0.082500
0.921567 0.088452 0.082500
1.000000 0.088629 0.082500
0.000000 0.156924 0.082500
0.087934 0.157266 0.082500
0.175587 0.158266 0.082500
0.262474 0.159858 0.082500
0.348848 0.161933 0.082500
0.433480 0.164342 0.082500
0.517271 0.166919 0.082500
0.599921 0.169503 0.082500
0.681110 0.171916 0.082500
0.762039 0.173993 0.082500
0.841734 0.175587 0.082500
0.921049 0.176587 0.082500
1.000000 0.176929 0.082500
0.000000 0.236060 0.082500
0.087110 0.236545 0.082500
0.173993 0.237961 0.082500
0.260222 0.240216 0.082500
0.346088 0.243157 0.082500
0.430413 0.246572 0.082500
0.514103 0.250227 0.082500
0.596854 0.253877 0.082500
0.678360 0.257286 0.082500
0.759784 0.260222 0.082500
0.840142 0.262474 0.082500
0.920224 0.263889 0.082500
1.000000 0.264373 0.082500
0.000000 0.316570 0.082500
0.086034 0.317159 0.082500
0.171916 0.318890 0.082500
0.257286 0.321640 0.082500
0.342499 0.325225 0.082500
0.426414 0.329390 0.082500
0.509968 0.333854 0.082500
0.592854 0.338331 0.082500
0.674775 0.342499 0.082500
0.756843 0.346088 0.082500
0.838067 0.348848 0.082500
0.919147 0.350576 0.082500
1.000000 0.351171 0.082500
0.000000 0.397491 0.082500
0.084782 0.398149 0.082500
0.169503 0.400079 0.082500
0.253877 0.403146 0.082500
0.338331 0.407146 0.082500
0.421769 0.411792 0.082500
0.505162 0.416780 0.082500
0.588208 0.421769 0.082500
0.670610 0.426414 0.082500
0.753428 0.430413 0.082500
0.835658 0.433480 0.082500
0.917895 0.435407 0.082500
1.000000 0.436067 0.082500
0.000000 0.480056 0.082500
0.083444 0.480735 0.082500
0.166919 0.482729 0.082500
0.250227 0.485897 0.082500
0.333854 0.490032 0.082500
0.416780 0.494838 0.082500
0.500000 0.500000 0.082500
0.583220 0.505162 0.082500
0.666146 0.509968 0.082500
0.749773 0.514103 0.082500
0.833081 0.517271 0.082500
0.916556 0.519265 0.082500
1.000000 0.519944 0.082500
0.000000 0.563933 0.082500
0.082106 0.564593 0.082500
0.164342 0.566520 0.082500
0.246572 0.569587 0.082500
0.329390 0.573586 0.082500
0.411792 0.578231 0.082500
0.494838 0.583220 0.082500
0.578231 0.588208 0.082500
0.661669 0.592854 0.082500
0.746123 0.596854 0.082500
0.830497 0.599921 0.082500
0.915218 0.601851 0.082500
1.000000 0.602509 0.082500
0.000000 0.648829 0.082500
0.080853 0.649424 0.082500
0.161933 0.651152 0.082500
0.243157 0.653912 0.082500
0.325225 0.657501 0.082500
0.407146 0.661669 0.082500
0.490032 0.666146 0.082500
0.573586 0.670610 0.082500
0.657501 0.674775 0.082500
0.742714 0.678360 0.082500
0.828084 0.681110 0.082500
0.913966 0.682841 0.082500
1.000000 0.683430 0.082500
0.000000 0.735627 0.082500
0.079776 0.736111 0.082500
0.159858 0.737526 0.082500
0.240216 0.739778 0.082500
0.321640 0.742714 0.082500
0.403146 0.746123 0.082500
0.485897 0.749773 0.082500
0.569587 0.753428 0.082500
0.653912 0.756843 0.082500
0.739778 0.759784 0.082500
0.826007 0.762039 0.082500
0.912890 0.763455 0.082500
1.000000 0.763940 0.082500
0.000000 0.823071 0.082500
0.078951 0.823413 0.082500
0.158266 0.824413 0.082500
0.237961 0.826007 0.082500
0.318890 0.828084 0.082500
0.400079 0.830497 0.082500
0.482729 0.833081 0.082500
0.566520 0.835658 0.082500
0.651152 0.838067 0.082500
0.737526 0.840142 0.082500
0.824413 0.841734 0.082500
0.912066 0.842734 0.082500
1.000000 0.843076 0.082500
0.000000 0.911371 0.082500
0.078433 0.911548 0.082500
0.157266 0.912066 0.082500
0.236545 0.912890 0.082500
0.317159 0.913966 0.082500
0.398149 0.915218 0.082500
0.480735 0.916556 0.082500
0.564593 0.917895 0.082500
0.649424 0.919147 0.082500
0.736111 0.920224 0.082500
0.823413 0.921049 0.082500
0.911548 0.921567 0.082500
1.000000 0.921744 0.082500
0.000000 1.000000 0.082500
0.078256 1.000000 0.082500
0.156924 1.000000 0.082500
0.236060 1.000000 0.082500
0.316570 1.000000 0.082500
0.397491 1.000000 0.082500
0.480056 1.000000 0.082500
0.563933 1.000000 0.082500
0.648829 1.000000 0.082500
0.735627 1.000000 0.082500
0.823071 1.000000 0.082500
0.911371 1.000000 0.082500
1.000000 1.000000 0.082500
0.000000 0.000000 0.165000
0.088629 0.000000 0.165000
0.176929 0.000000 0.165000
0.264373 0.000000 0.165000
0.351171 0.000000 0.165000
0.436067 0.000000 0.165000
0.519944 0.000000 0.165000
0.602509 0.000000 0.165000
0.683430 0.000000 0.165000
0.763940 0.000000 0.165000
0.843076 0.000000 0.165000
0.921744 0.000000 0.165000
1.000000 0.000000 0.165000
0.000000 0.078256 0.165000
0.088452 0.078433 0.165000
0.176587 0.078951 0.165000
0.263889 0.079776 0.165000
0.350576 0.080853 0.165000
0.435407 0.082106 0.165000
0.519265 0.083444 0.165000
0.601851 0.084782 0.165000
0.682841 0.086034 0.165000
0.763455 0.087110 0.165000
0.842734 0.087934 0.165000
0.921567 0.088452 0.165000
1.000000 0.088629 0.165000
0.000000 0.156924 0.165000
0.087934 0.157266 0.165000
0.175587 0.158266 0.165000
0.262474 0.159858 0.165000
0.348848 0.161933 0.165000
0.433480 0.164342 0.165000
0.517271 0.166919 0.165000
0.599921 0.169503 0.165000
0.681110 0.171916 0.165000
0.762039 0.173993 0.165000
0.841734 0.175587 0.165000
0.921049 0.176587 0.165000
1.000000 0.176929 0.165000
0.000000 0.236060 0.165000
0.087110 0.236545 0.165000
0.173993 0.237961 0.165000
0.260222 0.240216 0.165000
0.346088 0.243157 0.165000
0.430413 0.246572 0.165000
0.514103 0.250227 0.165000
0.596854 0.253877 0.165000
0.678360 0.257286 0.165000
0.759784 0.260222 0.165000
0.840142 0.262474 0.165000
0.920224 0.263889 0.165000
1.000000 0.264373 0.165000
0.000000 0.316570 0.165000
0.086034 0.317159 0.165000
0.171916 0.318890 0.165000
0.257286 0.321640 0.165000
0.342499 0.325225 0.165000
0.426414 0.329390 0.165000
0.509968 0.333854 0.165000
0.592854 0.338331 0.165000
0.674775 0.342499 0.165000
0.756843 0.346088 0.165000
0.838067 0.348848 0.165000
0.919147 0.350576 0.165000
1.000000 0.351171 0.165000
0.000000 0.397491 0.165000
0.084782 0.398149 0.165000
0.169503 0.400079 0.165000
0.253877 0.403146 0.165000
0.338331 0.407146 0.165000
0.421769 0.411792 0.165000
0.505162 0.416780 0.165000
0.588208 0.421769 0.165000
0.670610 0.426414 0.165000
0.753428 0.430413 0.165000
0.835658 0.433480 0.165000
0.917895 0.435407 0.165000
1.000000 0.436067 0.165000
0.000000 0.480056 0.165000
0.083444 0.480735 0.165000
0.166919 0.482729 0.165000
0.250227 0.485897 0.165000
0.333854 0.490032 0.165000
0.416780 0.494838 0.165000
0.500000 0.500000 0.165000
0.583220 0.505162 0.165000
0.666146 0.509968 0.165000
0.749773 0.514103 0.165000
0.833081 0.517271 0.165000
0.916556 0.519265 0.165000
1.000000 0.519944 0.165000
0.000000 0.563933 0.165000
0.082106 0.564593 0.165000
0.164342 0.566520 0.165000
0.246572 0.569587 0.165000
0.329390 0.573586 0.165000
0.411792 0.578231 0.165000
0.494838 0.583220 0.165000
0.578231 0.588208 0.165000
0.661669 0.592854 0.165000
0.746123 0.596854 0.165000
0.830497 0.599921 0.165000
0.915218 0.601851 0.165000
1.000000 0.602509 0.165000
0.000000 0.648829 0.165000
0.080853 0.649424 0.165000
0.161933 0.651152 0.165000
0.243157 0.653912 0.165000
0.325225 0.657501 0.165000
0.407146 0.661669 0.165000
0.490032 0.666146 0.165000
0.573586 0.670610 0.165000
0.657501 0.674775 0.165000
0.742714 0.678360 0.165000
0.828084 0.681110 0.165000
0.913966 0.682841 0.165000
1.000000 0.683430 0.165000
0.000000 0.735627 0.165000
0.079776 0.736111 0.165000
0.159858 0.737526 0.165000
0.240216 0.739778 0.165000
0.321640 0.742714 0.165000
0.403146 0.746123 0.165000
0.485897 0.749773 0.165000
0.569587 0.753428 0.165000
0.653912 0.756843 0.165000
0.739778 0.759784 0.165000
0.826007 0.762039 0.165000
0.912890 0.763455 0.165000
1.000000 0.763940 0.165000
0.000000 0.823071 0.165000
0.078951 0.823413 0.165000
0.158266 0.824413 0.165000
0.237961 0.826007 0.165000
0.318890 0.828084 0.165000
0.400079 0.830497 0.165000
0.482729 0.833081 0.165000
0.566520 0.835658 0.165000
0.651152 0.838067 0.165000
0.737526 0.840142 0.165000
0.824413 0.841734 0.165000
0.912066 0.842734 0.165000
1.000000 0.843076 0.165000
0.000000 0.911371 0.165000
0.078433 0.911548 0.165000
0.157266 0.912066 0.165000
0.236545 0.912890 0.165000
0.317159 0.913966 0.165000
0.398149 0.915218 0.165000
0.480735 0.916556 0.165000
0.564593 0.917895 0.165000
0.649424 0.919147 0.165000
0.736111 0.920224 0.165000
0.823413 0.921049 0.165000
0.911548 0.921567 0.165000
1.000000 0.921744 0.165000
0.000000 1.000000 0.165000
0.078256 1.000000 0.165000
0.156924 1.000000 0.165000
0.236060 1.000000 0.165000
0.316570 1.000000 0.165000
0.397491 1.000000 0.165000
0.480056 1.000000 0.165000
0.563933 1.000000 0.165000
0.648829 1.000000 0.165000
0.735627 1.000000 0.165000
0.823071 1.000000 0.165000
0.911371 1.000000 0.165000
1.000000 1.000000 0.165000
0.000000 0.000000 0.247500
0.088629 0.000000 0.247500
0.176929 0.000000 0.247500
0.264373 0.000000 0.247500
0.351171 0.000000 0.247500
0.436067 0.000000 0.247500
0.519944 0.000000 0.247500
0.602509 0.000000 0.247500
0.683430 0.000000 0.247500
0.763940 0.000000 0.247500
0.843076 0.000000 0.247500
0.921744 0.000000 0.247500
1.000000 0.000000 0.247500
0.000000 0.078256 0.247500
0.088452 0.078433 0.247500
0.176587 0.078951 0.247500
0.263889 0.079776 0.247500
0.350576 0.080853 0.247500
0.435407 0.082106 0.247500
0.519265 0.083444 0.247500
0.601851 0.084782 0.247500
0.682841 0.086034 0.247500
0.763455 0.087110 0.247500
0.842734 0.087934 0.247500
0.921567 0.088452 0.247500
1.000000 0.088629 0.247500
0.000000 0.156924 0.247500
0.087934 0.157266 0.247500
0.175587 0.158266 0.247500
0.262474 0.159858 0.247500
0.348848 0.161933 0.247500
0.433480 0.164342 0.247500
0.517271 0.166919 0.247500
0.599921 0.169503 0.247500
0.681110 0.171916 0.247500
0.762039 0.173993 0.247500
0.841734 0.175587 0.247500
0.921049 0.176587 0.247500
1.000000 0.176929 0.247500
0.000000 0.236060 0.247500
0.087110 0.236545 0.247500
0.173993 0.237961 0.247500
0.260222 0.240216 0.247500
0.346088 0.243157 0.247500
0.430413 0.246572 0.247500
0.514103 0.250227 0.247500
0.596854 0.253877 0.247500
0.678360 0.257286 0.247500
0.759784 0.260222 0.247500
0.840142 0.262474 0.247500
0.920224 0.263889 0.247500
1.000000 0.264373 0.247500
0.000000 0.316570 0.247500
0.086034 0.317159 0.247500
0.171916 0.318890 0.247500
0.257286 0.321640 0.247500
0.342499 0.325225 0.247500
0.426414 0.329390 0.247500
0.509968 0.333854 0.247500
0.592854 0.338331 0.247500
0.674775 0.342499 0.247500
0.756843 0.346088 0.247500
0.838067 0.348848 0.247500
0.919147 0.350576 0.247500
1.000000 0.351171 0.247500
0.000000 0.397491 0.247500
0.084782 0.398149 0.247500
0.169503 0.400079 0.247500
0.253877 0.403146 0.247500
0.338331 0.407146 0.247500
0.421769 0.411792 0.247500
0.505162 0.416780 0.247500
0.588208 0.421769 0.247500
0.670610 0.426414 0.247500
0.753428 0.430413 0.247500
0.835658 0.433480 0.247500
0.917895 0.435407 0.247500
1.000000 0.436067 0.247500
0.000000 0.480056 0.247500
0.083444 0.480735 0.247500
0.166919 0.482729 0.247500
0.250227 0.485897 0.247500
0.333854 0.490032 0.247500
0.416780 0.494838 0.247500
0.500000 0.500000 0.247500
0.583220 0.505162 0.247500
0.666146 0.509968 0.247500
0.749773 0.514103 0.247500
0.833081 0.517271 0.247500
0.916556 0.519265 0.247500
1.000000 0.519944 0.247500
0.000000 0.563933 0.247500
0.082106 0.564593 0.247500
0.164342 0.566520 0.247500
0.246572 0.569587 0.247500
0.329390 0.573586 0.247500
0.411792 0.578231 0.247500
0.494838 0.583220 0.247500
0.578231 0.588208 0.247500
0.661669 0.592854 0.247500
0.746123 0.596854 0.247500
0.830497 0.599921 0.247500
0.915218 0.601851 0.247500
1.000000 0.602509 0.247500
0.000000 0.648829 0.247500
0.080853 0.649424 0.247500
0.161933 0.651152 0.247500
0.243157 0.653912 0.247500
0.325225 0.657501 0.247500
0.407146 0.661669 0.247500
0.490032 0.666146 0.247500
0.573586 0.670610 0.247500
0.657501 0.674775 0.247500
0.742714 0.678360 0.247500
0.828084 0.681110 0.247500
0.913966 0.682841 0.247500
1.000000 0.683430 0.247500
0.000000 0.735627 0.247500
0.079776 0.736111 0.247500
0.159858 0.737526 0.247500
0.240216 0.739778 0.247500
0.321640 0.742714 0.247500
0.403146 0.746123 0.247500
0.485897 0.749773 0.247500
0.569587 0.753428 0.247500
0.653912 0.756843 0.247500
0.739778 0.759784 0.247500
0.826007 0.762039 0.247500
0.912890 0.763455 0.247500
1.000000 0.763940 0.247500
0.000000 0.823071 0.247500
0.078951 0.823413 0.247500
0.158266 0.824413 0.247500
0.237961 0.826007 0.247500
0.318890 0.828084 0.247500
0.400079 0.830497 0.247500
0.482729 0.833081 0.247500
0.566520 0.835658 0.247500
0.651152 0.838067 0.247500
0.737526 0.840142 0.247500
0.824413 0.841734 0.247500
0.912066 0.842734 0.247500
1.000000 0.843076 0.247500
0.000000 0.911371 0.247500
0.078433 0.911548 0.247500
0.157266 0.912066 0.247500
0.236545 0.912890 0.247500
0.317159 0.913966 0.247500
0.398149 0.915218 0.247500
0.480735 0.916556 0.247500
0.564593 0.917895 0.247500
0.649424 0.919147 0.247500
0.736111 0.920224 0.247500
0.823413 0.921049 0.247500
0.911548 0.921567 0.247500
1.000000 0.921744 0.247500
0.000000 1.000000 0.247500
0.078256 1.000000 0.247500
0.156924 1.000000 0.247500
0.236060 1.000000 0.247500
0.316570 1.000000 0.247500
0.397491 1.000000 0.247500
0.480056 1.000000 0.247500
0.563933 1.000000 0.247500
0.648829 1.000000 0.247500
0.735627 1.000000 0.247500
0.823071 1.000000 0.247500
0.911371 1.000000 0.247500
1.000000 1.000000 0.247500
0.000000 0.000000 0.330000
0.088629 0.000000 0.330000
0.176929 0.000000 0.330000
0.264373 0.000000 0.330000
0.351171 0.000000 0.330000
0.436067 0.000000 0.330000
0.519944 0.000000 0.330000
0.602509 0.000000 0.330000
0.683430 0.000000 0.330000
0.763940 0.000000 0.330000
0.843076 0.000000 0.330000
0.921744 0.000000 0.330000
1.000000 0.000000 0.330000
0.000000 0.078256 0.330000
0.088452 0.078433 0.330000
0.176587 0.078951 0.330000
0.263889 0.079776 0.330000
0.350576 0.080853 0.330000
0.435407 0.082106 0.330000
0.519265 0.083444 0.330000
0.601851 0.084782 0.330000
0.682841 0.086034 0.330000
0.763455 0.087110 0.330000
0.842734 0.087934 0.330000
0.921567 0.088452 0.330000
1.000000 0.088629 0.330000
0.000000 0.156924 0.330000
0.087934 0.157266 0.330000
0.175587 0.158266 0.330000
0.262474 0.159858 0.330000
0.348848 0.161933 0.330000
0.433480 0.164342 0.330000
0.517271 0.166919 0.330000
0.599921 0.169503 0.330000
0.681110 0.171916 0.330000
0.762039 0.173993 0.330000
0.841734 0.175587 0.330000
0.921049 0.176587 0.330000
1.000000 0.176929 0.330000
0.000000 0.236060 0.330000
0.087110 0.236545 0.330000
0.173993 0.237961 0.330000
0.260222 0.240216 0.330000
0.346088 0.243157 0.330000
0.430413 0.246572 0.330000
0.514103 0.250227 0.330000
0.596854 0.253877 0.330000
0.678360 0.257286 0.330000
0.759784 0.260222 0.330000
0.840142 0.262474 0.330000
0.920224 0.263889 0.330000
1.000000 0.264373 0.330000
0.000000 0.316570 0.330000
0.086034 0.317159 0.330000
0.171916 0.318890 0.330000
0.257286 0.321640 0.330000
0.342499 0.325225 0.330000
0.426414 0.329390 0.330000
0.509968 0.333854 0.330000
0.592854 0.338331 0.330000
0.674775 0.342499 0.330000
0.756843 0.346088 0.330000
0.838067 0.348848 0.330000