# vtk DataFile Version 2.0
Mesh for Fierro
ASCII 
DATASET UNSTRUCTURED_GRID

POINTS 845 float
0.000000 0.000000 0.000000
0.559640 0.000000 0.000000
0.835798 0.000000 0.000000
0.879691 0.000000 0.000000
0.911242 0.000000 0.000000
0.934002 0.000000 0.000000
0.950965 0.000000 0.000000
0.962049 0.000000 0.000000
0.969850 0.000000 0.000000
0.975939 0.000000 0.000000
0.982259 0.000000 0.000000
0.990538 0.000000 0.000000
1.000000 0.000000 0.000000
0.000000 0.009462 0.000000
0.562898 0.018055 0.000000
0.804107 0.075637 0.000000
0.850638 0.146463 0.000000
0.885038 0.226313 0.000000
0.899622 0.305853 0.000000
0.911045 0.382398 0.000000
0.921679 0.454059 0.000000
0.932282 0.512620 0.000000
0.946236 0.551188 0.000000
0.962155 0.572892 0.000000
0.981945 0.562898 0.000000
1.000000 0.559640 0.000000
0.000000 0.017741 0.000000
0.572892 0.037845 0.000000
0.760542 0.133585 0.000000
0.826193 0.239588 0.000000
0.835196 0.385032 0.000000
0.844880 0.475912 0.000000
0.843026 0.562362 0.000000
0.831804 0.624034 0.000000
0.824439 0.673271 0.000000
0.833649 0.717664 0.000000
0.866415 0.760543 0.000000
0.924364 0.804107 0.000000
1.000000 0.835798 0.000000
0.000000 0.024061 0.000000
0.551188 0.053764 0.000000
0.717664 0.166351 0.000000
0.789569 0.292354 0.000000
0.764142 0.429008 0.000000
0.766065 0.522118 0.000000
0.731031 0.602813 0.000000
0.700965 0.670674 0.000000
0.686501 0.734634 0.000000
0.707646 0.789569 0.000000
0.760412 0.826193 0.000000
0.853537 0.850639 0.000000
1.000000 0.879691 0.000000
0.000000 0.030150 0.000000
0.512620 0.067718 0.000000
0.673271 0.175561 0.000000
0.734634 0.313499 0.000000
0.700662 0.440038 0.000000
0.678003 0.536434 0.000000
0.621979 0.598336 0.000000
0.590747 0.654433 0.000000
0.559962 0.700662 0.000000
0.570992 0.764142 0.000000
0.614969 0.835196 0.000000
0.773688 0.885039 0.000000
1.000000 0.911242 0.000000
0.000000 0.037951 0.000000
0.454059 0.078321 0.000000
0.624034 0.168196 0.000000
0.670674 0.299035 0.000000
0.654433 0.409253 0.000000
0.614825 0.495910 0.000000
0.556219 0.553890 0.000000
0.504090 0.614825 0.000000
0.463566 0.678003 0.000000
0.477882 0.766065 0.000000
0.524088 0.844880 0.000000
0.694148 0.899622 0.000000
1.000000 0.934002 0.000000
0.000000 0.049035 0.000000
0.382398 0.088955 0.000000
0.562362 0.156974 0.000000
0.602813 0.268969 0.000000
0.598336 0.378021 0.000000
0.553890 0.443781 0.000000
0.500000 0.500000 0.000000
0.446110 0.556219 0.000000
0.401664 0.621979 0.000000
0.397187 0.731031 0.000000
0.437638 0.843026 0.000000
0.617603 0.911045 0.000000
1.000000 0.950965 0.000000
0.000000 0.065998 0.000000
0.305853 0.100378 0.000000
0.475912 0.155120 0.000000
0.522118 0.233935 0.000000
0.536434 0.321997 0.000000
0.495910 0.385175 0.000000
0.443781 0.446110 0.000000
0.385175 0.504090 0.000000
0.345567 0.590747 0.000000
0.329327 0.700965 0.000000
0.375965 0.831804 0.000000
0.545942 0.921679 0.000000
1.000000 0.962049 0.000000
0.000000 0.088758 0.000000
0.226313 0.114962 0.000000
0.385031 0.164804 0.000000
0.429008 0.235858 0.000000
0.440038 0.299338 0.000000
0.409253 0.345567 0.000000
0.378021 0.401664 0.000000
0.321997 0.463566 0.000000
0.299338 0.559962 0.000000
0.265366 0.686501 0.000000
0.326729 0.824439 0.000000
0.487381 0.932282 0.000000
1.000000 0.969850 0.000000
0.000000 0.120310 0.000000
0.146463 0.149362 0.000000
0.239588 0.173807 0.000000
0.292354 0.210431 0.000000
0.313499 0.265366 0.000000
0.299035 0.329327 0.000000
0.268969 0.397187 0.000000
0.233935 0.477882 0.000000
0.235858 0.570992 0.000000
0.210431 0.707646 0.000000
0.282336 0.833649 0.000000
0.448813 0.946236 0.000000
1.000000 0.975939 0.000000
0.000000 0.164202 0.000000
0.075637 0.195893 0.000000
0.133585 0.239457 0.000000
0.166351 0.282336 0.000000
0.175561 0.326729 0.000000
0.168196 0.375965 0.000000
0.156974 0.437638 0.000000
0.155120 0.524088 0.000000
0.164804 0.614969 0.000000
0.173807 0.760412 0.000000
0.239457 0.866415 0.000000
0.427109 0.962155 0.000000
1.000000 0.982259 0.000000
0.000000 0.440360 0.000000
0.018055 0.437102 0.000000
0.037845 0.427109 0.000000
0.053764 0.448814 0.000000
0.067718 0.487381 0.000000
0.078321 0.545942 0.000000
0.088955 0.617603 0.000000
0.100378 0.694148 0.000000
0.114961 0.773688 0.000000
0.149361 0.853538 0.000000
0.195893 0.924364 0.000000
0.437102 0.981945 0.000000
1.000000 0.990538 0.000000
0.000000 1.000000 0.000000
0.009462 1.000000 0.000000
0.017741 1.000000 0.000000
0.024061 1.000000 0.000000
0.030150 1.000000 0.000000
0.037951 1.000000 0.000000
0.049035 1.000000 0.000000
0.065998 1.000000 0.000000
0.088758 1.000000 0.000000
0.120310 1.000000 0.000000
0.164202 1.000000 0.000000
0.440360 1.000000 0.000000
1.000000 1.000000 0.000000
0.000000 0.000000 0.082500
0.559640 0.000000 0.082500
0.835798 0.000000 0.082500
0.879691 0.000000 0.082500
0.911242 0.000000 0.082500
0.934002 0.000000 0.082500
0.950965 0.000000 0.082500
0.962049 0.000000 0.082500
0.969850 0.000000 0.082500
0.975939 0.000000 0.082500
0.982259 0.000000 0.082500
0.990538 0.000000 0.082500
1.000000 0.000000 0.082500
0.000000 0.009462 0.082500
0.562898 0.018055 0.082500
0.804107 0.075637 0.082500
0.850638 0.146463 0.082500
0.885038 0.226313 0.082500
0.899622 0.305853 0.082500
0.911045 0.382398 0.082500
0.921679 0.454059 0.082500
0.932282 0.512620 0.082500
0.946236 0.551188 0.082500
0.962155 0.572892 0.082500
0.981945 0.562898 0.082500
1.000000 0.559640 0.082500
0.000000 0.017741 0.082500
0.572892 0.037845 0.082500
0.760542 0.133585 0.082500
0.826193 0.239588 0.082500
0.835196 0.385032 0.082500
0.844880 0.475912 0.082500
0.843026 0.562362 0.082500
0.831804 0.624034 0.082500
0.824439 0.673271 0.082500
0.833649 0.717664 0.082500
0.866415 0.760543 0.082500
0.924364 0.804107 0.082500
1.000000 0.835798 0.082500
0.000000 0.024061 0.082500
0.551188 0.053764 0.082500
0.717664 0.166351 0.082500
0.789569 0.292354 0.082500
0.764142 0.429008 0.082500
0.766065 0.522118 0.082500
0.731031 0.602813 0.082500
0.700965 0.670674 0.082500
0.686501 0.734634 0.082500
0.707646 0.789569 0.082500
0.760412 0.826193 0.082500
0.853537 0.850639 0.082500
1.000000 0.879691 0.082500
0.000000 0.030150 0.082500
0.512620 0.067718 0.082500
0.673271 0.175561 0.082500
0.734634 0.313499 0.082500
0.700662 0.440038 0.082500
0.678003 0.536434 0.082500
0.621979 0.598336 0.082500
0.590747 0.654433 0.082500
0.559962 0.700662 0.082500
0.570992 0.764142 0.082500
0.614969 0.835196 0.082500
0.773688 0.885039 0.082500
1.000000 0.911242 0.082500
0.000000 0.037951 0.082500
0.454059 0.078321 0.082500
0.624034 0.168196 0.082500
0.670674 0.299035 0.082500
0.654433 0.409253 0.082500
0.614825 0.495910 0.082500
0.556219 0.553890 0.082500
0.504090 0.614825 0.082500
0.463566 0.678003 0.082500
0.477882 0.766065 0.082500
0.524088 0.844880 0.082500
0.694148 0.899622 0.082500
1.000000 0.934002 0.082500
0.000000 0.049035 0.082500
0.382398 0.088955 0.082500
0.562362 0.156974 0.082500
0.602813 0.268969 0.082500
0.598336 0.378021 0.082500
0.553890 0.443781 0.082500
0.500000 0.500000 0.082500
0.446110 0.556219 0.082500
0.401664 0.621979 0.082500
0.397187 0.731031 0.082500
0.437638 0.843026 0.082500
0.617603 0.911045 0.082500
1.000000 0.950965 0.082500
0.000000 0.065998 0.082500
0.305853 0.100378 0.082500
0.475912 0.155120 0.082500
0.522118 0.233935 0.082500
0.536434 0.321997 0.082500
0.495910 0.385175 0.082500
0.443781 0.446110 0.082500
0.385175 0.504090 0.082500
0.345567 0.590747 0.082500
0.329327 0.700965 0.082500
0.375965 0.831804 0.082500
0.545942 0.921679 0.082500
1.000000 0.962049 0.082500
0.000000 0.088758 0.082500
0.226313 0.114962 0.082500
0.385031 0.164804 0.082500
0.429008 0.235858 0.082500
0.440038 0.299338 0.082500
0.409253 0.345567 0.082500
0.378021 0.401664 0.082500
0.321997 0.463566 0.082500
0.299338 0.559962 0.082500
0.265366 0.686501 0.082500
0.326729 0.824439 0.082500
0.487381 0.932282 0.082500
1.000000 0.969850 0.082500
0.000000 0.120310 0.082500
0.146463 0.149362 0.082500
0.239588 0.173807 0.082500
0.292354 0.210431 0.082500
0.313499 0.265366 0.082500
0.299035 0.329327 0.082500
0.268969 0.397187 0.082500
0.233935 0.477882 0.082500
0.235858 0.570992 0.082500
0.210431 0.707646 0.082500
0.282336 0.833649 0.082500
0.448813 0.946236 0.082500
1.000000 0.975939 0.082500
0.000000 0.164202 0.082500
0.075637 0.195893 0.082500
0.133585 0.239457 0.082500
0.166351 0.282336 0.082500
0.175561 0.326729 0.082500
0.168196 0.375965 0.082500
0.156974 0.437638 0.082500
0.155120 0.524088 0.082500
0.164804 0.614969 0.082500
0.173807 0.760412 0.082500
0.239457 0.866415 0.082500
0.427109 0.962155 0.082500
1.000000 0.982259 0.082500
0.000000 0.440360 0.082500
0.018055 0.437102 0.082500
0.037845 0.427109 0.082500
0.053764 0.448814 0.082500
0.067718 0.487381 0.082500
0.078321 0.545942 0.082500
0.088955 0.617603 0.082500
0.100378 0.694148 0.082500
0.114961 0.773688 0.082500
0.149361 0.853538 0.082500
0.195893 0.924364 0.082500
0.437102 0.981945 0.082500
1.000000 0.990538 0.082500
0.000000 1.000000 0.082500
0.009462 1.000000 0.082500
0.017741 1.000000 0.082500
0.024061 1.000000 0.082500
0.030150 1.000000 0.082500
0.037951 1.000000 0.082500
0.049035 1.000000 0.082500
0.065998 1.000000 0.082500
0.088758 1.000000 0.082500
0.120310 1.000000 0.082500
0.164202 1.000000 0.082500
0.440360 1.000000 0.082500
1.000000 1.000000 0.082500
0.000000 0.000000 0.165000
0.559640 0.000000 0.165000
0.835798 0.000000 0.165000
0.879691 0.000000 0.165000
0.911242 0.000000 0.165000
0.934002 0.000000 0.165000
0.950965 0.000000 0.165000
0.962049 0.000000 0.165000
0.969850 0.000000 0.165000
0.975939 0.000000 0.165000
0.982259 0.000000 0.165000
0.990538 0.000000 0.165000
1.000000 0.000000 0.165000
0.000000 0.009462 0.165000
0.562898 0.018055 0.165000
0.804107 0.075637 0.165000
0.850638 0.146463 0.165000
0.885038 0.226313 0.165000
0.899622 0.305853 0.165000
0.911045 0.382398 0.165000
0.921679 0.454059 0.165000
0.932282 0.512620 0.165000
0.946236 0.551188 0.165000
0.962155 0.572892 0.165000
0.981945 0.562898 0.165000
1.000000 0.559640 0.165000
0.000000 0.017741 0.165000
0.572892 0.037845 0.165000
[...]
POINT_DATA 845 
VECTORS pos float 
0.000000 0.000000 0.000000
0.559640 0.000000 0.000000
0.835798 0.000000 0.000000
0.879691 0.000000 0.000000
0.911242 0.000000 0.000000
0.934002 0.000000 0.000000
0.950965 0.000000 0.000000
0.962049 0.000000 0.000000
0.969850 0.000000 0.000000
0.975939 0.000000 0.000000
0.982259 0.000000 0.000000
0.990538 0.000000 0.000000
1.000000 0.000000 0.000000
0.000000 0.009462 0.000000
0.562898 0.018055 0.000000
0.804107 0.075637 0.000000
0.850638 0.146463 0.000000
0.885038 0.226313 0.000000
0.899622 0.305853 0.000000
0.911045 0.382398 0.000000
0.921679 0.454059 0.000000
0.932282 0.512620 0.000000
0.946236 0.551188 0.000000
0.962155 0.572892 0.000000
0.981945 0.562898 0.000000
1.000000 0.559640 0.000000
0.000000 0.017741 0.000000
0.572892 0.037845 0.000000
0.760542 0.133585 0.000000
0.826193 0.239588 0.000000
0.835196 0.385032 0.000000
0.844880 0.475912 0.000000
0.843026 0.562362 0.000000
0.831804 0.624034 0.000000
0.824439 0.673271 0.000000
0.833649 0.717664 0.000000
0.866415 0.760543 0.000000
0.924364 0.804107 0.000000
1.000000 0.835798 0.000000
0.000000 0.024061 0.000000
0.551188 0.053764 0.000000
0.717664 0.166351 0.000000
0.789569 0.292354 0.000000
0.764142 0.429008 0.000000
0.766065 0.522118 0.000000
0.731031 0.602813 0.000000
0.700965 0.670674 0.000000
0.686501 0.734634 0.000000
0.707646 0.789569 0.000000
0.760412 0.826193 0.000000
0.853537 0.850639 0.000000
1.000000 0.879691 0.000000
0.000000 0.030150 0.000000
0.512620 0.067718 0.000000
0.673271 0.175561 0.000000
0.734634 0.313499 0.000000
0.700662 0.440038 0.000000
0.678003 0.536434 0.000000
0.621979 0.598336 0.000000
0.590747 0.654433 0.000000
0.559962 0.700662 0.000000
0.570992 0.764142 0.000000
0.614969 0.835196 0.000000
0.773688 0.885039 0.000000
1.000000 0.911242 0.000000
0.000000 0.037951 0.000000
0.454059 0.078321 0.000000
0.624034 0.168196 0.000000
0.670674 0.299035 0.000000
0.654433 0.409253 0.000000
0.614825 0.495910 0.000000
0.556219 0.553890 0.000000
0.504090 0.614825 0.000000
0.463566 0.678003 0.000000
0.477882 0.766065 0.000000
0.524088 0.844880 0.000000
0.694148 0.899622 0.000000
1.000000 0.934002 0.000000
0.000000 0.049035 0.000000
0.382398 0.088955 0.000000
0.562362 0.156974 0.000000
0.602813 0.268969 0.000000
0.598336 0.378021 0.000000
0.553890 0.443781 0.000000
0.500000 0.500000 0.000000
0.446110 0.556219 0.000000
0.401664 0.621979 0.000000
0.397187 0.731031 0.000000
0.437638 0.843026 0.000000
0.617603 0.911045 0.000000
1.000000 0.950965 0.000000
0.000000 0.065998 0.000000
0.305853 0.100378 0.000000
0.475912 0.155120 0.000000
0.522118 0.233935 0.000000
0.536434 0.321997 0.000000
0.495910 0.385175 0.000000
0.443781 0.446110 0.000000
0.385175 0.504090 0.000000
0.345567 0.590747 0.000000
0.329327 0.700965 0.000000
0.375965 0.831804 0.000000
0.545942 0.921679 0.000000
1.000000 0.962049 0.000000
0.000000 0.088758 0.000000
0.226313 0.114962 0.000000
0.385031 0.164804 0.000000
0.429008 0.235858 0.000000
0.440038 0.299338 0.000000
0.409253 0.345567 0.000000
0.378021 0.401664 0.000000
0.321997 0.463566 0.000000
0.299338 0.559962 0.000000
0.265366 0.686501 0.000000
0.326729 0.824439 0.000000
0.487381 0.932282 0.000000
1.000000 0.969850 0.000000
0.000000 0.120310 0.000000
0.146463 0.149362 0.000000
0.239588 0.173807 0.000000
0.292354 0.210431 0.000000
0.313499 0.265366 0.000000
0.299035 0.329327 0.000000
0.268969 0.397187 0.000000
0.233935 0.477882 0.000000
0.235858 0.570992 0.000000
0.210431 0.707646 0.000000
0.282336 0.833649 0.000000
0.448813 0.946236 0.000000
1.000000 0.975939 0.000000
0.000000 0.164202 0.000000
0.075637 0.195893 0.000000
0.133585 0.239457 0.000000
0.166351 0.282336 0.000000
0.175561 0.326729 0.000000
0.168196 0.375965 0.000000
0.156974 0.437638 0.000000
0.155120 0.524088 0.000000
0.164804 0.614969 0.000000
0.173807 0.760412 0.000000
0.239457 0.866415 0.000000
0.427109 0.962155 0.000000
1.000000 0.982259 0.000000
0.000000 0.440360 0.000000
0.018055 0.437102 0.000000
0.037845 0.427109 0.000000
0.053764 0.448814 0.000000
0.067718 0.487381 0.000000
0.078321 0.545942 0.000000
0.088955 0.617603 0.000000
0.100378 0.694148 0.000000
0.114961 0.773688 0.000000
0.149361 0.853538 0.000000
0.195893 0.924364 0.000000
0.437102 0.981945 0.000000
1.000000 0.990538 0.000000
0.000000 1.000000 0.000000
0.009462 1.000000 0.000000
0.017741 1.000000 0.000000
0.024061 1.000000 0.000000
0.030150 1.000000 0.000000
0.037951 1.000000 0.000000
0.049035 1.000000 0.000000
0.065998 1.000000 0.000000
0.088758 1.000000 0.000000
0.120310 1.000000 0.000000
0.164202 1.000000 0.000000
0.440360 1.000000 0.000000
1.000000 1.000000 0.000000
0.000000 0.000000 0.082500
0.559640 0.000000 0.082500
0.835798 0.000000 0.082500
0.879691 0.000000 0.082500
0.911242 0.000000 0.082500
0.934002 0.000000 0.082500
0.950965 0.000000 0.082500
0.962049 0.000000 0.082500
0.969850 0.000000 0.082500
0.975939 0.000000 0.082500
0.982259 0.000000 0.082500
0.990538 0.000000 0.082500
1.000000 0.000000 0.082500
0.000000 0.009462 0.082500
0.562898 0.018055 0.082500
0.804107 0.075637 0.082500
0.850638 0.146463 0.082500
0.885038 0.226313 0.082500
0.899622 0.305853 0.082500
0.911045 0.382398 0.082500
0.921679 0.454059 0.082500
0.932282 0.512620 0.082500
0.946236 0.551188 0.082500
0.962155 0.572892 0.082500
0.981945 0.562898 0.082500
1.000000 0.559640 0.082500
0.000000 0.017741 0.082500
0.572892 0.037845 0.082500
0.760542 0.133585 0.082500
0.826193 0.239588 0.082500
0.835196 0.385032 0.082500
0.844880 0.475912 0.082500
0.843026 0.562362 0.082500
0.831804 0.624034 0.082500
0.824439 0.673271 0.082500
0.833649 0.717664 0.082500
0.866415 0.760543 0.082500
0.924364 0.804107 0.082500
1.000000 0.835798 0.082500
0.000000 0.024061 0.082500
0.551188 0.053764 0.082500
0.717664 0.166351 0.082500
0.789569 0.292354 0.082500
0.764142 0.429008 0.082500
0.766065 0.522118 0.082500
0.731031 0.602813 0.082500
0.700965 0.670674 0.082500
0.686501 0.734634 0.082500
0.707646 0.789569 0.082500
0.760412 0.826193 0.082500
0.853537 0.850639 0.082500
1.000000 0.879691 0.082500
0.000000 0.030150 0.082500
0.512620 0.067718 0.082500
0.673271 0.175561 0.082500
0.734634 0.313499 0.082500
0.700662 0.440038 0.082500
0.678003 0.536434 0.082500
0.621979 0.598336 0.082500
0.590747 0.654433 0.082500
0.559962 0.700662 0.082500
0.570992 0.764142 0.082500
0.614969 0.835196 0.082500
0.773688 0.885039 0.082500
1.000000 0.911242 0.082500
0.000000 0.037951 0.082500
0.454059 0.078321 0.082500
0.624034 0.168196 0.082500
0.670674 0.299035 0.082500
0.654433 0.409253 0.082500
0.614825 0.495910 0.082500
0.556219 0.553890 0.082500
0.504090 0.614825 0.082500
0.463566 0.678003 0.082500
0.477882 0.766065 0.082500
0.524088 0.844880 0.082500
0.694148 0.899622 0.082500
1.000000 0.934002 0.082500
0.000000 0.049035 0.082500
0.382398 0.088955 0.082500
0.562362 0.156974 0.082500
0.602813 0.268969 0.082500
0.598336 0.378021 0.082500
0.553890 0.443781 0.082500
0.500000 0.500000 0.082500
0.446110 0.556219 0.082500
0.401664 0.621979 0.082500
0.397187 0.731031 0.082500
0.437638 0.843026 0.082500
0.617603 0.911045 0.082500
1.000000 0.950965 0.082500
0.000000 0.065998 0.082500
0.305853 0.100378 0.082500
0.475912 0.155120 0.082500
0.522118 0.233935 0.082500
0.536434 0.321997 0.082500
0.495910 0.385175 0.082500
0.443781 0.446110 0.082500
0.385175 0.504090 0.082500
0.345567 0.590747 0.082500
0.329327 0.700965 0.082500
0.375965 0.831804 0.082500
0.545942 0.921679 0.082500
1.000000 0.962049 0.082500
0.000000 0.088758 0.082500
0.226313 0.114962 0.082500
0.385031 0.164804 0.082500
0.429008 0.235858 0.082500
0.440038 0.299338 0.082500
0.409253 0.345567 0.082500
0.378021 0.401664 0.082500
0.321997 0.463566 0.082500
0.299338 0.559962 0.082500
0.265366 0.686501 0.082500
0.326729 0.824439 0.082500
0.487381 0.932282 0.082500
1.000000 0.969850 0.082500
0.000000 0.120310 0.082500
0.146463 0.149362 0.082500
0.239588 0.173807 0.082500
0.292354 0.210431 0.082500
0.313499 0.265366 0.082500
0.299035 0.329327 0.082500
0.268969 0.397187 0.082500
0.233935 0.477882 0.082500
0.235858 0.570992 0.082500
0.210431 0.707646 0.082500
0.282336 0.833649 0.082500
0.448813 0.946236 0.082500
1.000000 0.975939 0.082500
0.000000 0.164202 0.082500
0.075637 0.195893 0.082500
0.133585 0.239457 0.082500
0.166351 0.282336 0.082500
0.175561 0.326729 0.082500
0.168196 0.375965 0.082500
0.156974 0.437638 0.082500
0.155120 0.524088 0.082500
0.164804 0.614969 0.082500
0.173807 0.760412 0.082500
0.239457 0.866415 0.082500
0.427109 0.962155 0.082500
1.000000 0.982259 0.082500
0.000000 0.440360 0.082500
0.018055 0.437102 0.082500
0.037845 0.427109 0.082500
0.053764 0.448814 0.082500
0.067718 0.487381 0.082500
0.078321 0.545942 0.082500
0.088955 0.617603 0.082500
0.100378 0.694148 0.082500
0.114961 0.773688 0.082500
0.149361 0.853538 0.082500
0.195893 0.924364 0.082500
0.437102 0.981945 0.082500
1.000000 0.990538 0.082500
0.000000 1.000000 0.082500
0.009462 1.000000 0.082500
0.017741 1.000000 0.082500
0.024061 1.000000 0.082500
0.030150 1.000000 0.082500
0.037951 1.000000 0.082500
0.049035 1.000000 0.082500
0.065998 1.000000 0.082500
0.088758 1.000000 0.082500
0.120310 1.000000 0.082500
0.164202 1.000000 0.082500
0.440360 1.000000 0.082500
1.000000 1.000000 0.082500
0.000000 0.000000 0.165000
0.559640 0.000000 0.165000
0.835798 0.000000 0.165000
0.879691 0.000000 0.165000
0.911242 0.000000 0.165000
0.934002 0.000000 0.165000
0.950965 0.000000 0.165000
0.962049 0.000000 0.165000
0.969850 0.000000 0.165000
0.975939 0.000000 0.165000
0.982259 0.000000 0.165000
0.990538 0.000000 0.165000
1.000000 0.000000 0.165000
0.000000 0.009462 0.165000
0.562898 0.018055 0.165000
0.804107 0.075637 0.165000
0.850638 0.146463 0.165000
0.885038 0.226313 0.165000
0.899622 0.305853 0.165000
0.911045 0.382398 0.165000
0.921679 0.454059 0.165000
0.932282 0.512620 0.165000
0.946236 0.551188 0.165000
0.962155 0.572892 0.165000
0.981945 0.562898 0.165000
1.000000 0.559640 0.165000
0.000000 0.017741 0.165000
0.572892 0.037845 0.165000
0.760542 0.133585 0.165000
0.826193 0.239588 0.165000
0.835196 0.385032 0.165000
0.844880 0.475912 0.165000
0.843026 0.562362 0.165000
0.831804 0.624034 0.165000
0.824439 0.673271 0.165000
0.833649 0.717664 0.165000
0.866415 0.760543 0.165000
0.924364 0.804107 0.165000
1.000000 0.835798 0.165000
0.000000 0.024061 0.165000
0.551188 0.053764 0.165000
0.717664 0.166351 0.165000
0.789569 0.292354 0.165000
0.764142 0.429008 0.165000
0.766065 0.522118 0.165000
0.731031 0.602813 0.165000
0.700965 0.670674 0.165000
0.686501 0.734634 0.165000
0.707646 0.789569 0.165000
0.760412 0.826193 0.165000
0.853537 0.850639 0.165000
1.000000 0.879691 0.165000
0.000000 0.030150 0.165000
0.512620 0.067718 0.165000
0.673271 0.175561 0.165000
0.734634 0.313499 0.165000
0.700662 0.440038 0.165000
0.678003 0.536434 0.165000
0.621979 0.598336 0.165000
0.590747 0.654433 0.165000
0.559962 0.700662 0.165000
0.570992 0.764142 0.165000
0.614969 0.835196 0.165000
0.773688 0.885039 0.165000
1.000000 0.911242 0.165000
0.000000 0.037951 0.165000
0.454059 0.078321 0.165000
0.624034 0.168196 0.165000
0.670674 0.299035 0.165000
0.654433 0.409253 0.165000
0.614825 0.495910 0.165000
0.556219 0.553890 0.165000
0.504090 0.614825 0.165000
0.463566 0.678003 0.165000
0.477882 0.766065 0.165000
0.524088 0.844880 0.165000
0.694148 0.899622 0.165000
1.000000 0.934002 0.165000
0.000000 0.049035 0.165000
0.382398 0.088955 0.165000
0.562362 0.156974 0.165000
0.602813 0.268969 0.165000
0.598336 0.378021 0.165000
0.553890 0.443781 0.165000
0.500000 0.500000 0.165000
0.446110 0.556219 0.165000
0.401664 0.621979 0.165000
0.397187 0.731031 0.165000
0.437638 0.843026 0.165000
0.617603 0.911045 0.165000
1.000000 0.950965 0.165000
0.000000 0.065998 0.165000
0.305853 0.100378 0.165000
0.475912 0.155120 0.165000
0.522118 0.233935 0.165000
0.536434 0.321997 0.165000
0.495910 0.385175 0.165000
0.443781 0.446110 0.165000
0.385175 0.504090 0.165000
0.345567 0.590747 0.165000
0.329327 0.700965 0.165000
0.375965 0.831804 0.165000
0.545942 0.921679 0.165000
1.000000 0.962049 0.165000
0.000000 0.088758 0.165000
0.226313 0.114962 0.165000
0.385031 0.164804 0.165000
0.429008 0.235858 0.165000
0.440038 0.299338 0.165000
0.409253 0.345567 0.165000
0.378021 0.401664 0.165000
0.321997 0.463566 0.165000
0.299338 0.559962 0.165000
0.265366 0.686501 0.165000
0.326729 0.824439 0.165000
0.487381 0.932282 0.165000
1.000000 0.969850 0.165000
0.000000 0.120310 0.165000
0.146463 0.149362 0.165000
0.239588 0.173807 0.165000
0.292354 0.210431 0.165000
0.313499 0.265366 0.165000
0.299035 0.329327 0.165000
0.268969 0.397187 0.165000
0.233935 0.477882 0.165000
0.235858 0.570992 0.165000
0.210431 0.707646 0.165000
0.282336 0.833649 0.165000
0.448813 0.946236 0.165000
1.000000 0.975939 0.165000
0.000000 0.164202 0.165000
0.075637 0.195893 0.165000
0.133585 0.239457 0.165000
0.166351 0.282336 0.165000
0.175561 0.326729 0.165000
0.168196 0.375965 0.165000
0.156974 0.437638 0.165000
0.155120 0.524088 0.165000
0.164804 0.614969 0.165000
0.173807 0.760412 0.165000
0.239457 0.866415 0.165000
0.427109 0.962155 0.165000
1.000000 0.982259 0.165000
0.000000 0.440360 0.165000
0.018055 0.437102 0.165000
0.037845 0.427109 0.165000
0.053764 0.448814 0.165000
0.067718 0.487381 0.165000
0.078321 0.545942 0.165000
0.088955 0.617603 0.165000
0.100378 0.694148 0.165000
0.114961 0.773688 0.165000
0.149361 0.853538 0.165000
0.195893 0.924364 0.165000
0.437102 0.981945 0.165000
1.000000 0.990538 0.165000
0.000000 1.000000 0.165000
0.009462 1.000000 0.165000
0.017741 1.000000 0.165000
0.024061 1.000000 0.165000
0.030150 1.000000 0.165000
0.037951 1.000000 0.165000
0.049035 1.000000 0.165000
0.065998 1.000000 0.165000
0.088758 1.000000 0.165000
0.120310 1.000000 0.165000
0.164202 1.000000 0.165000
0.440360 1.000000 0.165000
1.000000 1.000000 0.165000
0.000000 0.000000 0.247500
0.559640 0.000000 0.247500
0.835798 0.000000 0.247500
0.879691 0.000000 0.247500
0.911242 0.000000 0.247500
0.934002 0.000000 0.247500
0.950965 0.000000 0.247500
0.962049 0.000000 0.247500
0.969850 0.000000 0.247500
0.975939 0.000000 0.247500
0.982259 0.000000 0.247500
0.990538 0.000000 0.247500
1.000000 0.000000 0.247500
0.000000 0.009462 0.247500
0.562898 0.018055 0.247500
0.804107 0.075637 0.247500
0.850638 0.146463 0.247500
0.885038 0.226313 0.247500
0.899622 0.305853 0.247500
0.911045 0.382398 0.247500
0.921679 0.454059 0.247500
0.932282 0.512620 0.247500
0.946236 0.551188 0.247500
0.962155 0.572892 0.247500
0.981945 0.562898 0.247500
1.000000 0.559640 0.247500
0.000000 0.017741 0.247500
0.572892 0.037845 0.247500
0.760542 0.133585 0.247500
0.826193 0.239588 0.247500
0.835196 0.385032 0.247500
0.844880 0.475912 0.247500
0.843026 0.562362 0.247500
0.831804 0.624034 0.247500
0.824439 0.673271 0.247500
0.833649 0.717664 0.247500
0.866415 0.760543 0.247500
0.924364 0.804107 0.247500
1.000000 0.835798 0.247500
0.000000 0.024061 0.247500
0.551188 0.053764 0.247500
0.717664 0.166351 0.247500
0.789569 0.292354 0.247500
0.764142 0.429008 0.247500
0.766065 0.522118 0.247500
0.731031 0.602813 0.247500
0.700965 0.670674 0.247500
0.686501 0.734634 0.247500
0.707646 0.789569 0.247500
0.760412 0.826193 0.247500
0.853537 0.850639 0.247500
1.000000 0.879691 0.247500
0.000000 0.030150 0.247500
0.512620 0.067718 0.247500
0.673271 0.175561 0.247500
0.734634 0.313499 0.247500
0.700662 0.440038 0.247500
0.678003 0.536434 0.247500
0.621979 0.598336 0.247500
0.590747 0.654433 0.247500
0.559962 0.700662 0.247500
0.570992 0.764142 0.247500
0.614969 0.835196 0.247500
0.773688 0.885039 0.247500
1.000000 0.911242 0.247500
0.000000 0.037951 0.247500
0.454059 0.078321 0.247500
0.624034 0.168196 0.247500
0.670674 0.299035 0.247500
0.654433 0.409253 0.247500
0.614825 0.495910 0.247500
0.556219 0.553890 0.247500
0.504090 0.614825 0.247500
0.463566 0.678003 0.247500
0.477882 0.766065 0.247500
0.524088 0.844880 0.247500
0.694148 0.899622 0.247500
1.000000 0.934002 0.247500
0.000000 0.049035 0.247500
0.382398 0.088955 0.247500
0.562362 0.156974 0.247500
0.602813 0.268969 0.247500
0.598336 0.378021 0.247500
0.553890 0.443781 0.247500
0.500000 0.500000 0.247500
0.446110 0.556219 0.247500
0.401664 0.621979 0.247500
0.397187 0.731031 0.247500
0.437638 0.843026 0.247500
0.617603 0.911045 0.247500
1.000000 0.950965 0.247500
0.000000 0.065998 0.247500
0.305853 0.100378 0.247500
0.475912 0.155120 0.247500
0.522118 0.233935 0.247500
0.536434 0.321997 0.247500
0.495910 0.385175 0.247500
0.443781 0.446110 0.247500
0.385175 0.504090 0.247500
0.345567 0.590747 0.247500
0.329327 0.700965 0.247500
0.375965 0.831804 0.247500
0.545942 0.921679 0.247500
1.000000 0.962049 0.247500
0.000000 0.088758 0.247500
0.226313 0.114962 0.247500
0.385031 0.164804 0.247500
0.429008 0.235858 0.247500
0.440038 0.299338 0.247500
0.409253 0.345567 0.247500
0.378021 0.401664 0.247500
0.321997 0.463566 0.247500
0.299338 0.559962 0.247500
0.265366 0.686501 0.247500
0.326729 0.824439 0.247500
0.487381 0.932282 0.247500
1.000000 0.969850 0.247500
0.000000 0.120310 0.247500
0.146463 0.149362 0.247500
0.239588 0.173807 0.247500
0.292354 0.210431 0.247500
0.313499 0.265366 0.247500
0.299035 0.329327 0.247500
0.268969 0.397187 0.247500
0.233935 0.477882 0.247500
0.235858 0.570992 0.247500
0.210431 0.707646 0.247500
0.282336 0.833649 0.247500
0.448813 0.946236 0.247500
1.000000 0.975939 0.247500
0.000000 0.164202 0.247500
0.075637 0.195893 0.247500
0.133585 0.239457 0.247500
0.166351 0.282336 0.247500
0.175561 0.326729 0.247500
0.168196 0.375965 0.247500
0.156974 0.437638 0.247500
0.155120 0.524088 0.247500
0.164804 0.614969 0.247500
0.173807 0.760412 0.247500
0.239457 0.866415 0.247500
0.427109 0.962155 0.247500
1.000000 0.982259 0.247500
0.000000 0.440360 0.247500
0.018055 0.437102 0.247500
0.037845 0.427109 0.247500
0.053764 0.448814 0.247500
0.067718 0.487381 0.247500
0.078321 0.545942 0.247500
0.088955 0.617603 0.247500
0.100378 0.694148 0.247500
0.114961 0.773688 0.247500
0.149361 0.853538 0.247500
0.195893 0.924364 0.247500
0.437102 0.981945 0.247500
1.000000 0.990538 0.247500
0.000000 1.000000 0.247500
0.009462 1.000000 0.247500
0.017741 1.000000 0.247500
0.024061 1.000000 0.247500
0.030150 1.000000 0.247500
0.037951 1.000000 0.247500
0.049035 1.000000 0.247500
0.065998 1.000000 0.247500
0.088758 1.000000 0.247500
0.120310 1.000000 0.247500
0.164202 1.000000 0.247500
0.440360 1.000000 0.247500
1.000000 1.000000 0.247500
0.000000 0.000000 0.330000
0.559640 0.000000 0.330000
0.835798 0.000000 0.330000
0.879691 0.000000 0.330000
0.911242 0.000000 0.330000
0.934002 0.000000 0.330000
0.950965 0.000000 0.330000
0.962049 0.000000 0.330000
0.969850 0.000000 0.330000
0.975939 0.000000 0.330000
0.982259 0.000000 0.330000
0.990538 0.000000 0.330000
1.000000 0.000000 0.330000
0.000000 0.009462 0.330000
0.562898 0.018055 0.330000
0.804107 0.075637 0.330000
0.850638 0.146463 0.330000
0.885038 0.226313 0.330000
0.899622 0.305853 0.330000
0.911045 0.382398 0.330000
0.921679 0.454059 0.330000
0.932282 0.512620 0.330000
0.946236 0.551188 0.330000
0.962155 0.572892 0.330000
0.981945 0.562898 0.330000
1.000000 0.559640 0.330000
0.000000 0.017741 0.330000
0.572892 0.037845 0.330000
0.760542 0.133585 0.330000
0.826193 0.239588 0.330000
0.835196 0.385032 0.330000
0.844880 0.475912 0.330000
0.843026 0.562362 0.330000
0.831804 0.624034 0.330000
0.824439 0.673271 0.330000
0.833649 0.717664 0.330000
0.866415 0.760543 0.330000
0.924364 0.804107 0.330000
1.000000 0.835798 0.330000
0.000000 0.024061 0.330000
0.551188 0.053764 0.330000
0.717664 0.166351 0.330000
0.789569 0.292354 0.330000
0.764142 0.429008 0.330000
0.766065 0.522118 0.330000
0.731031 0.602813 0.330000
0.700965 0.670674 0.330000
0.686501 0.734634 0.330000
0.707646 0.789569 0.330000
0.760412 0.826193 0.330000
0.853537 0.850639 0.330000
1.000000 0.879691 0.330000
0.000000 0.030150 0.330000
0.512620 0.067718 0.330000
0.673271 0.175561 0.330000
0.734634 0.313499 0.330000
0.700662 0.440038 0.330000
0.678003 0.536434 0.330000
0.621979 0.598336 0.330000
0.590747 0.654433 0.330000
0.559962 0.700662 0.330000
0.570992 0.764142 0.330000
0.614969 0.835196 0.330000