# vtk DataFile Version 2.0
Mesh for Fierro
ASCII 
DATASET UNSTRUCTURED_GRID

POINTS 845 float
0.000000 0.000000 0.000000
0.249933 0.000000 0.000000
0.444087 0.000000 0.000000
0.580891 0.000000 0.000000
0.678202 0.000000 0.000000
0.750317 0.000000 0.000000
0.807928 0.000000 0.000000
0.853744 0.000000 0.000000
0.890289 0.000000 0.000000
0.922525 0.000000 0.000000
0.949586 0.000000 0.000000
0.975545 0.000000 0.000000
1.000000 0.000000 0.000000
0.000000 0.024455 0.000000
0.246360 0.029884 0.000000
0.438528 0.041759 0.000000
0.573082 0.061039 0.000000
0.669376 0.084560 0.000000
0.739543 0.110215 0.000000
0.794157 0.138683 0.000000
0.838549 0.166769 0.000000
0.874824 0.195025 0.000000
0.908328 0.217945 0.000000
0.939538 0.234763 0.000000
0.970116 0.246360 0.000000
1.000000 0.249933 0.000000
0.000000 0.050414 0.000000
0.234763 0.060462 0.000000
0.420925 0.082608 0.000000
0.550450 0.118535 0.000000
0.642705 0.160563 0.000000
0.710440 0.207078 0.000000
0.761475 0.257691 0.000000
0.804275 0.306832 0.000000
0.841704 0.355145 0.000000
0.879400 0.392957 0.000000
0.917392 0.420925 0.000000
0.958242 0.438528 0.000000
1.000000 0.444087 0.000000
0.000000 0.077475 0.000000
0.217945 0.091672 0.000000
0.392957 0.120600 0.000000
0.515356 0.169352 0.000000
0.601928 0.225626 0.000000
0.663108 0.286710 0.000000
0.708458 0.351247 0.000000
0.748662 0.411031 0.000000
0.785498 0.468791 0.000000
0.830648 0.515356 0.000000
0.881465 0.550450 0.000000
0.938961 0.573082 0.000000
1.000000 0.580891 0.000000
0.000000 0.109711 0.000000
0.195025 0.125176 0.000000
0.355145 0.158296 0.000000
0.468791 0.214502 0.000000
0.551243 0.280839 0.000000
0.604143 0.351363 0.000000
0.643276 0.424551 0.000000
0.681504 0.490447 0.000000
0.719161 0.551243 0.000000
0.774374 0.601928 0.000000
0.839437 0.642705 0.000000
0.915440 0.669376 0.000000
1.000000 0.678202 0.000000
0.000000 0.146256 0.000000
0.166769 0.161451 0.000000
0.306832 0.195725 0.000000
0.411031 0.251338 0.000000
0.490447 0.318496 0.000000
0.537617 0.390691 0.000000
0.573418 0.465867 0.000000
0.609309 0.537617 0.000000
0.648637 0.604143 0.000000
0.713290 0.663108 0.000000
0.792922 0.710440 0.000000
0.889786 0.739543 0.000000
1.000000 0.750317 0.000000
0.000000 0.192072 0.000000
0.138683 0.205843 0.000000
0.257691 0.238525 0.000000
0.351247 0.291542 0.000000
0.424551 0.356724 0.000000
0.465867 0.426582 0.000000
0.500000 0.500000 0.000000
0.534133 0.573418 0.000000
0.575449 0.643276 0.000000
0.648753 0.708458 0.000000
0.742309 0.761475 0.000000
0.861317 0.794157 0.000000
1.000000 0.807928 0.000000
0.000000 0.249683 0.000000
0.110215 0.260457 0.000000
0.207078 0.289560 0.000000
0.286710 0.336892 0.000000
0.351363 0.395857 0.000000
0.390691 0.462383 0.000000
0.426582 0.534133 0.000000
0.462383 0.609309 0.000000
0.509553 0.681504 0.000000
0.588969 0.748662 0.000000
0.693168 0.804275 0.000000
0.833231 0.838549 0.000000
1.000000 0.853744 0.000000
0.000000 0.321798 0.000000
0.084560 0.330624 0.000000
0.160563 0.357295 0.000000
0.225626 0.398072 0.000000
0.280839 0.448757 0.000000
0.318496 0.509553 0.000000
0.356724 0.575449 0.000000
0.395857 0.648637 0.000000
0.448757 0.719161 0.000000
0.531209 0.785498 0.000000
0.644855 0.841704 0.000000
0.804975 0.874824 0.000000
1.000000 0.890289 0.000000
0.000000 0.419109 0.000000
0.061039 0.426918 0.000000
0.118535 0.449550 0.000000
0.169352 0.484644 0.000000
0.214502 0.531209 0.000000
0.251338 0.588969 0.000000
0.291542 0.648753 0.000000
0.336892 0.713290 0.000000
0.398072 0.774374 0.000000
0.484644 0.830648 0.000000
0.607043 0.879400 0.000000
0.782056 0.908328 0.000000
1.000000 0.922525 0.000000
0.000000 0.555913 0.000000
0.041759 0.561472 0.000000
0.082608 0.579075 0.000000
0.120600 0.607043 0.000000
0.158296 0.644855 0.000000
0.195725 0.693168 0.000000
0.238525 0.742309 0.000000
0.289560 0.792922 0.000000
0.357295 0.839437 0.000000
0.449550 0.881465 0.000000
0.579075 0.917392 0.000000
0.765237 0.939538 0.000000
1.000000 0.949586 0.000000
0.000000 0.750068 0.000000
0.029884 0.753640 0.000000
0.060462 0.765237 0.000000
0.091672 0.782056 0.000000
0.125176 0.804975 0.000000
0.161451 0.833231 0.000000
0.205843 0.861317 0.000000
0.260457 0.889786 0.000000
0.330624 0.915440 0.000000
0.426918 0.938961 0.000000
0.561472 0.958242 0.000000
0.753640 0.970116 0.000000
1.000000 0.975545 0.000000
0.000000 1.000000 0.000000
0.024455 1.000000 0.000000
0.050414 1.000000 0.000000
0.077475 1.000000 0.000000
0.109711 1.000000 0.000000
0.146256 1.000000 0.000000
0.192072 1.000000 0.000000
0.249683 1.000000 0.000000
0.321798 1.000000 0.000000
0.419109 1.000000 0.000000
0.555913 1.000000 0.000000
0.750068 1.000000 0.000000
1.000000 1.000000 0.000000
0.000000 0.000000 0.082500
0.249933 0.000000 0.082500
0.444087 0.000000 0.082500
0.580891 0.000000 0.082500
0.678202 0.000000 0.082500
0.750317 0.000000 0.082500
0.807928 0.000000 0.082500
0.853744 0.000000 0.082500
0.890289 0.000000 0.082500
0.922525 0.000000 0.082500
0.949586 0.000000 0.082500
0.975545 0.000000 0.082500
1.000000 0.000000 0.082500
0.000000 0.024455 0.082500
0.246360 0.029884 0.082500
0.438528 0.041759 0.082500
0.573082 0.061039 0.082500
0.669376 0.084560 0.082500
0.739543 0.110215 0.082500
0.794157 0.138683 0.082500
0.838549 0.166769 0.082500
0.874824 0.195025 0.082500
0.908328 0.217945 0.082500
0.939538 0.234763 0.082500
0.970116 0.246360 0.082500
1.000000 0.249933 0.082500
0.000000 0.050414 0.082500
0.234763 0.060462 0.082500
0.420925 0.082608 0.082500
0.550450 0.118535 0.082500
0.642705 0.160563 0.082500
0.710440 0.207078 0.082500
0.761475 0.257691 0.082500
0.804275 0.306832 0.082500
0.841704 0.355145 0.082500
0.879400 0.392957 0.082500
0.917392 0.420925 0.082500
0.958242 0.438528 0.082500
1.000000 0.444087 0.082500
0.000000 0.077475 0.082500
0.217945 0.091672 0.082500
0.392957 0.120600 0.082500
0.515356 0.169352 0.082500
0.601928 0.225626 0.082500
0.663108 0.286710 0.082500
0.708458 0.351247 0.082500
0.748662 0.411031 0.082500
0.785498 0.468791 0.082500
0.830648 0.515356 0.082500
0.881465 0.550450 0.082500
0.938961 0.573082 0.082500
1.000000 0.580891 0.082500
0.000000 0.109711 0.082500
0.195025 0.125176 0.082500
0.355145 0.158296 0.082500
0.468791 0.214502 0.082500
0.551243 0.280839 0.082500
0.604143 0.351363 0.082500
0.643276 0.424551 0.082500
0.681504 0.490447 0.082500
0.719161 0.551243 0.082500
0.774374 0.601928 0.082500
0.839437 0.642705 0.082500
0.915440 0.669376 0.082500
1.000000 0.678202 0.082500
0.000000 0.146256 0.082500
0.166769 0.161451 0.082500
0.306832 0.195725 0.082500
0.411031 0.251338 0.082500
0.490447 0.318496 0.082500
0.537617 0.390691 0.082500
0.573418 0.465867 0.082500
0.609309 0.537617 0.082500
0.648637 0.604143 0.082500
0.713290 0.663108 0.082500
0.792922 0.710440 0.082500
0.889786 0.739543 0.082500
1.000000 0.750317 0.082500
0.000000 0.192072 0.082500
0.138683 0.205843 0.082500
0.257691 0.238525 0.082500
0.351247 0.291542 0.082500
0.424551 0.356724 0.082500
0.465867 0.426582 0.082500
0.500000 0.500000 0.082500
0.534133 0.573418 0.082500
0.575449 0.643276 0.082500
0.648753 0.708458 0.082500
0.742309 0.761475 0.082500
0.861317 0.794157 0.082500
1.000000 0.807928 0.082500
0.000000 0.249683 0.082500
0.110215 0.260457 0.082500
0.207078 0.289560 0.082500
0.286710 0.336892 0.082500
0.351363 0.395857 0.082500
0.390691 0.462383 0.082500
0.426582 0.534133 0.082500
0.462383 0.609309 0.082500
0.509553 0.681504 0.082500
0.588969 0.748662 0.082500
0.693168 0.804275 0.082500
0.833231 0.838549 0.082500
1.000000 0.853744 0.082500
0.000000 0.321798 0.082500
0.084560 0.330624 0.082500
0.160563 0.357295 0.082500
0.225626 0.398072 0.082500
0.280839 0.448757 0.082500
0.318496 0.509553 0.082500
0.356724 0.575449 0.082500
0.395857 0.648637 0.082500
0.448757 0.719161 0.082500
0.531209 0.785498 0.082500
0.644855 0.841704 0.082500
0.804975 0.874824 0.082500
1.000000 0.890289 0.082500
0.000000 0.419109 0.082500
0.061039 0.426918 0.082500
0.118535 0.449550 0.082500
0.169352 0.484644 0.082500
0.214502 0.531209 0.082500
0.251338 0.588969 0.082500
0.291542 0.648753 0.082500
0.336892 0.713290 0.082500
0.398072 0.774374 0.082500
0.484644 0.830648 0.082500
0.607043 0.879400 0.082500
0.782056 0.908328 0.082500
1.000000 0.922525 0.082500
0.000000 0.555913 0.082500
0.041759 0.561472 0.082500
0.082608 0.579075 0.082500
0.120600 0.607043 0.082500
0.158296 0.644855 0.082500
0.195725 0.693168 0.082500
0.238525 0.742309 0.082500
0.289560 0.792922 0.082500
0.357295 0.839437 0.082500
0.449550 0.881465 0.082500
0.579075 0.917392 0.082500
0.765237 0.939538 0.082500
1.000000 0.949586 0.082500
0.000000 0.750068 0.082500
0.029884 0.753640 0.082500
0.060462 0.765237 0.082500
0.091672 0.782056 0.082500
0.125176 0.804975 0.082500
0.161451 0.833231 0.082500
0.205843 0.861317 0.082500
0.260457 0.889786 0.082500
0.330624 0.915440 0.082500
0.426918 0.938961 0.082500
0.561472 0.958242 0.082500
0.753640 0.970116 0.082500
1.000000 0.975545 0.082500
0.000000 1.000000 0.082500
0.024455 1.000000 0.082500
0.050414 1.000000 0.082500
0.077475 1.000000 0.082500
0.109711 1.000000 0.082500
0.146256 1.000000 0.082500
0.192072 1.000000 0.082500
0.249683 1.000000 0.082500
0.321798 1.000000 0.082500
0.419109 1.000000 0.082500
0.555913 1.000000 0.082500
0.750068 1.000000 0.082500
1.000000 1.000000 0.082500
0.000000 0.000000 0.165000
0.249933 0.000000 0.165000
0.444087 0.000000 0.165000
0.580891 0.000000 0.165000
0.678202 0.000000 0.165000
0.750317 0.000000 0.165000
0.807928 0.000000 0.165000
0.853744 0.000000 0.165000
0.890289 0.000000 0.165000
0.922525 0.000000 0.165000
0.949586 0.000000 0.165000
0.975545 0.000000 0.165000
1.000000 0.000000 0.165000
0.000000 0.024455 0.165000
0.246360 0.029884 0.165000
0.438528 0.041759 0.165000
0.573082 0.061039 0.165000
0.669376 0.084560 0.165000
0.739543 0.110215 0.165000
0.794157 0.138683 0.165000
0.838549 0.166769 0.165000
0.874824 0.195025 0.165000
0.908328 0.217945 0.165000
0.939538 0.234763 0.165000
0.970116 0.246360 0.165000
1.000000 0.249933 0.165000
0.000000 0.050414 0.165000
0.234763 0.060462 0.165000
[...]
POINT_DATA 845 
VECTORS pos float 
0.000000 0.000000 0.000000
0.249933 0.000000 0.000000
0.444087 0.000000 0.000000
0.580891 0.000000 0.000000
0.678202 0.000000 0.000000
0.750317 0.000000 0.000000
0.807928 0.000000 0.000000
0.853744 0.000000 0.000000
0.890289 0.000000 0.000000
0.922525 0.000000 0.000000
0.949586 0.000000 0.000000
0.975545 0.000000 0.000000
1.000000 0.000000 0.000000
0.000000 0.024455 0.000000
0.246360 0.029884 0.000000
0.438528 0.041759 0.000000
0.573082 0.061039 0.000000
0.669376 0.084560 0.000000
0.739543 0.110215 0.000000
0.794157 0.138683 0.000000
0.838549 0.166769 0.000000
0.874824 0.195025 0.000000
0.908328 0.217945 0.000000
0.939538 0.234763 0.000000
0.970116 0.246360 0.000000
1.000000 0.249933 0.000000
0.000000 0.050414 0.000000
0.234763 0.060462 0.000000
0.420925 0.082608 0.000000
0.550450 0.118535 0.000000
0.642705 0.160563 0.000000
0.710440 0.207078 0.000000
0.761475 0.257691 0.000000
0.804275 0.306832 0.000000
0.841704 0.355145 0.000000
0.879400 0.392957 0.000000
0.917392 0.420925 0.000000
0.958242 0.438528 0.000000
1.000000 0.444087 0.000000
0.000000 0.077475 0.000000
0.217945 0.091672 0.000000
0.392957 0.120600 0.000000
0.515356 0.169352 0.000000
0.601928 0.225626 0.000000
0.663108 0.286710 0.000000
0.708458 0.351247 0.000000
0.748662 0.411031 0.000000
0.785498 0.468791 0.000000
0.830648 0.515356 0.000000
0.881465 0.550450 0.000000
0.938961 0.573082 0.000000
1.000000 0.580891 0.000000
0.000000 0.109711 0.000000
0.195025 0.125176 0.000000
0.355145 0.158296 0.000000
0.468791 0.214502 0.000000
0.551243 0.280839 0.000000
0.604143 0.351363 0.000000
0.643276 0.424551 0.000000
0.681504 0.490447 0.000000
0.719161 0.551243 0.000000
0.774374 0.601928 0.000000
0.839437 0.642705 0.000000
0.915440 0.669376 0.000000
1.000000 0.678202 0.000000
0.000000 0.146256 0.000000
0.166769 0.161451 0.000000
0.306832 0.195725 0.000000
0.411031 0.251338 0.000000
0.490447 0.318496 0.000000
0.537617 0.390691 0.000000
0.573418 0.465867 0.000000
0.609309 0.537617 0.000000
0.648637 0.604143 0.000000
0.713290 0.663108 0.000000
0.792922 0.710440 0.000000
0.889786 0.739543 0.000000
1.000000 0.750317 0.000000
0.000000 0.192072 0.000000
0.138683 0.205843 0.000000
0.257691 0.238525 0.000000
0.351247 0.291542 0.000000
0.424551 0.356724 0.000000
0.465867 0.426582 0.000000
0.500000 0.500000 0.000000
0.534133 0.573418 0.000000
0.575449 0.643276 0.000000
0.648753 0.708458 0.000000
0.742309 0.761475 0.000000
0.861317 0.794157 0.000000
1.000000 0.807928 0.000000
0.000000 0.249683 0.000000
0.110215 0.260457 0.000000
0.207078 0.289560 0.000000
0.286710 0.336892 0.000000
0.351363 0.395857 0.000000
0.390691 0.462383 0.000000
0.426582 0.534133 0.000000
0.462383 0.609309 0.000000
0.509553 0.681504 0.000000
0.588969 0.748662 0.000000
0.693168 0.804275 0.000000
0.833231 0.838549 0.000000
1.000000 0.853744 0.000000
0.000000 0.321798 0.000000
0.084560 0.330624 0.000000
0.160563 0.357295 0.000000
0.225626 0.398072 0.000000
0.280839 0.448757 0.000000
0.318496 0.509553 0.000000
0.356724 0.575449 0.000000
0.395857 0.648637 0.000000
0.448757 0.719161 0.000000
0.531209 0.785498 0.000000
0.644855 0.841704 0.000000
0.804975 0.874824 0.000000
1.000000 0.890289 0.000000
0.000000 0.419109 0.000000
0.061039 0.426918 0.000000
0.118535 0.449550 0.000000
0.169352 0.484644 0.000000
0.214502 0.531209 0.000000
0.251338 0.588969 0.000000
0.291542 0.648753 0.000000
0.336892 0.713290 0.000000
0.398072 0.774374 0.000000
0.484644 0.830648 0.000000
0.607043 0.879400 0.000000
0.782056 0.908328 0.000000
1.000000 0.922525 0.000000
0.000000 0.555913 0.000000
0.041759 0.561472 0.000000
0.082608 0.579075 0.000000
0.120600 0.607043 0.000000
0.158296 0.644855 0.000000
0.195725 0.693168 0.000000
0.238525 0.742309 0.000000
0.289560 0.792922 0.000000
0.357295 0.839437 0.000000
0.449550 0.881465 0.000000
0.579075 0.917392 0.000000
0.765237 0.939538 0.000000
1.000000 0.949586 0.000000
0.000000 0.750068 0.000000
0.029884 0.753640 0.000000
0.060462 0.765237 0.000000
0.091672 0.782056 0.000000
0.125176 0.804975 0.000000
0.161451 0.833231 0.000000
0.205843 0.861317 0.000000
0.260457 0.889786 0.000000
0.330624 0.915440 0.000000
0.426918 0.938961 0.000000
0.561472 0.958242 0.000000
0.753640 0.970116 0.000000
1.000000 0.975545 0.000000
0.000000 1.000000 0.000000
0.024455 1.000000 0.000000
0.050414 1.000000 0.000000
0.077475 1.000000 0.000000
0.109711 1.000000 0.000000
0.146256 1.000000 0.000000
0.192072 1.000000 0.000000
0.249683 1.000000 0.000000
0.321798 1.000000 0.000000
0.419109 1.000000 0.000000
0.555913 1.000000 0.000000
0.750068 1.000000 0.000000
1.000000 1.000000 0.000000
0.000000 0.000000 0.082500
0.249933 0.000000 0.082500
0.444087 0.000000 0.082500
0.580891 0.000000 0.082500
0.678202 0.000000 0.082500
0.750317 0.000000 0.082500
0.807928 0.000000 0.082500
0.853744 0.000000 0.082500
0.890289 0.000000 0.082500
0.922525 0.000000 0.082500
0.949586 0.000000 0.082500
0.975545 0.000000 0.082500
1.000000 0.000000 0.082500
0.000000 0.024455 0.082500
0.246360 0.029884 0.082500
0.438528 0.041759 0.082500
0.573082 0.061039 0.082500
0.669376 0.084560 0.082500
0.739543 0.110215 0.082500
0.794157 0.138683 0.082500
0.838549 0.166769 0.082500
0.874824 0.195025 0.082500
0.908328 0.217945 0.082500
0.939538 0.234763 0.082500
0.970116 0.246360 0.082500
1.000000 0.249933 0.082500
0.000000 0.050414 0.082500
0.234763 0.060462 0.082500
0.420925 0.082608 0.082500
0.550450 0.118535 0.082500
0.642705 0.160563 0.082500
0.710440 0.207078 0.082500
0.761475 0.257691 0.082500
0.804275 0.306832 0.082500
0.841704 0.355145 0.082500
0.879400 0.392957 0.082500
0.917392 0.420925 0.082500
0.958242 0.438528 0.082500
1.000000 0.444087 0.082500
0.000000 0.077475 0.082500
0.217945 0.091672 0.082500
0.392957 0.120600 0.082500
0.515356 0.169352 0.082500
0.601928 0.225626 0.082500
0.663108 0.286710 0.082500
0.708458 0.351247 0.082500
0.748662 0.411031 0.082500
0.785498 0.468791 0.082500
0.830648 0.515356 0.082500
0.881465 0.550450 0.082500
0.938961 0.573082 0.082500
1.000000 0.580891 0.082500
0.000000 0.109711 0.082500
0.195025 0.125176 0.082500
0.355145 0.158296 0.082500
0.468791 0.214502 0.082500
0.551243 0.280839 0.082500
0.604143 0.351363 0.082500
0.643276 0.424551 0.082500
0.681504 0.490447 0.082500
0.719161 0.551243 0.082500
0.774374 0.601928 0.082500
0.839437 0.642705 0.082500
0.915440 0.669376 0.082500
1.000000 0.678202 0.082500
0.000000 0.146256 0.082500
0.166769 0.161451 0.082500
0.306832 0.195725 0.082500
0.411031 0.251338 0.082500
0.490447 0.318496 0.082500
0.537617 0.390691 0.082500
0.573418 0.465867 0.082500
0.609309 0.537617 0.082500
0.648637 0.604143 0.082500
0.713290 0.663108 0.082500
0.792922 0.710440 0.082500
0.889786 0.739543 0.082500
1.000000 0.750317 0.082500
0.000000 0.192072 0.082500
0.138683 0.205843 0.082500
0.257691 0.238525 0.082500
0.351247 0.291542 0.082500
0.424551 0.356724 0.082500
0.465867 0.426582 0.082500
0.500000 0.500000 0.082500
0.534133 0.573418 0.082500
0.575449 0.643276 0.082500
0.648753 0.708458 0.082500
0.742309 0.761475 0.082500
0.861317 0.794157 0.082500
1.000000 0.807928 0.082500
0.000000 0.249683 0.082500
0.110215 0.260457 0.082500
0.207078 0.289560 0.082500
0.286710 0.336892 0.082500
0.351363 0.395857 0.082500
0.390691 0.462383 0.082500
0.426582 0.534133 0.082500
0.462383 0.609309 0.082500
0.509553 0.681504 0.082500
0.588969 0.748662 0.082500
0.693168 0.804275 0.082500
0.833231 0.838549 0.082500
1.000000 0.853744 0.082500
0.000000 0.321798 0.082500
0.084560 0.330624 0.082500
0.160563 0.357295 0.082500
0.225626 0.398072 0.082500
0.280839 0.448757 0.082500
0.318496 0.509553 0.082500
0.356724 0.575449 0.082500
0.395857 0.648637 0.082500
0.448757 0.719161 0.082500
0.531209 0.785498 0.082500
0.644855 0.841704 0.082500
0.804975 0.874824 0.082500
1.000000 0.890289 0.082500
0.000000 0.419109 0.082500
0.061039 0.426918 0.082500
0.118535 0.449550 0.082500
0.169352 0.484644 0.082500
0.214502 0.531209 0.082500
0.251338 0.588969 0.082500
0.291542 0.648753 0.082500
0.336892 0.713290 0.082500
0.398072 0.774374 0.082500
0.484644 0.830648 0.082500
0.607043 0.879400 0.082500
0.782056 0.908328 0.082500
1.000000 0.922525 0.082500
0.000000 0.555913 0.082500
0.041759 0.561472 0.082500
0.082608 0.579075 0.082500
0.120600 0.607043 0.082500
0.158296 0.644855 0.082500
0.195725 0.693168 0.082500
0.238525 0.742309 0.082500
0.289560 0.792922 0.082500
0.357295 0.839437 0.082500
0.449550 0.881465 0.082500
0.579075 0.917392 0.082500
0.765237 0.939538 0.082500
1.000000 0.949586 0.082500
0.000000 0.750068 0.082500
0.029884 0.753640 0.082500
0.060462 0.765237 0.082500
0.091672 0.782056 0.082500
0.125176 0.804975 0.082500
0.161451 0.833231 0.082500
0.205843 0.861317 0.082500
0.260457 0.889786 0.082500
0.330624 0.915440 0.082500
0.426918 0.938961 0.082500
0.561472 0.958242 0.082500
0.753640 0.970116 0.082500
1.000000 0.975545 0.082500
0.000000 1.000000 0.082500
0.024455 1.000000 0.082500
0.050414 1.000000 0.082500
0.077475 1.000000 0.082500
0.109711 1.000000 0.082500
0.146256 1.000000 0.082500
0.192072 1.000000 0.082500
0.249683 1.000000 0.082500
0.321798 1.000000 0.082500
0.419109 1.000000 0.082500
0.555913 1.000000 0.082500
0.750068 1.000000 0.082500
1.000000 1.000000 0.082500
0.000000 0.000000 0.165000
0.249933 0.000000 0.165000
0.444087 0.000000 0.165000
0.580891 0.000000 0.165000
0.678202 0.000000 0.165000
0.750317 0.000000 0.165000
0.807928 0.000000 0.165000
0.853744 0.000000 0.165000
0.890289 0.000000 0.165000
0.922525 0.000000 0.165000
0.949586 0.000000 0.165000
0.975545 0.000000 0.165000
1.000000 0.000000 0.165000
0.000000 0.024455 0.165000
0.246360 0.029884 0.165000
0.438528 0.041759 0.165000
0.573082 0.061039 0.165000
0.669376 0.084560 0.165000
0.739543 0.110215 0.165000
0.794157 0.138683 0.165000
0.838549 0.166769 0.165000
0.874824 0.195025 0.165000
0.908328 0.217945 0.165000
0.939538 0.234763 0.165000
0.970116 0.246360 0.165000
1.000000 0.249933 0.165000
0.000000 0.050414 0.165000
0.234763 0.060462 0.165000
0.420925 0.082608 0.165000
0.550450 0.118535 0.165000
0.642705 0.160563 0.165000
0.710440 0.207078 0.165000
0.761475 0.257691 0.165000
0.804275 0.306832 0.165000
0.841704 0.355145 0.165000
0.879400 0.392957 0.165000
0.917392 0.420925 0.165000
0.958242 0.438528 0.165000
1.000000 0.444087 0.165000
0.000000 0.077475 0.165000
0.217945 0.091672 0.165000
0.392957 0.120600 0.165000
0.515356 0.169352 0.165000
0.601928 0.225626 0.165000
0.663108 0.286710 0.165000
0.708458 0.351247 0.165000
0.748662 0.411031 0.165000
0.785498 0.468791 0.165000
0.830648 0.515356 0.165000
0.881465 0.550450 0.165000
0.938961 0.573082 0.165000
1.000000 0.580891 0.165000
0.000000 0.109711 0.165000
0.195025 0.125176 0.165000
0.355145 0.158296 0.165000
0.468791 0.214502 0.165000
0.551243 0.280839 0.165000
0.604143 0.351363 0.165000
0.643276 0.424551 0.165000
0.681504 0.490447 0.165000
0.719161 0.551243 0.165000
0.774374 0.601928 0.165000
0.839437 0.642705 0.165000
0.915440 0.669376 0.165000
1.000000 0.678202 0.165000
0.000000 0.146256 0.165000
0.166769 0.161451 0.165000
0.306832 0.195725 0.165000
0.411031 0.251338 0.165000
0.490447 0.318496 0.165000
0.537617 0.390691 0.165000
0.573418 0.465867 0.165000
0.609309 0.537617 0.165000
0.648637 0.604143 0.165000
0.713290 0.663108 0.165000
0.792922 0.710440 0.165000
0.889786 0.739543 0.165000
1.000000 0.750317 0.165000
0.000000 0.192072 0.165000
0.138683 0.205843 0.165000
0.257691 0.238525 0.165000
0.351247 0.291542 0.165000
0.424551 0.356724 0.165000
0.465867 0.426582 0.165000
0.500000 0.500000 0.165000
0.534133 0.573418 0.165000
0.575449 0.643276 0.165000
0.648753 0.708458 0.165000
0.742309 0.761475 0.165000
0.861317 0.794157 0.165000
1.000000 0.807928 0.165000
0.000000 0.249683 0.165000
0.110215 0.260457 0.165000
0.207078 0.289560 0.165000
0.286710 0.336892 0.165000
0.351363 0.395857 0.165000
0.390691 0.462383 0.165000
0.426582 0.534133 0.165000
0.462383 0.609309 0.165000
0.509553 0.681504 0.165000
0.588969 0.748662 0.165000
0.693168 0.804275 0.165000
0.833231 0.838549 0.165000
1.000000 0.853744 0.165000
0.000000 0.321798 0.165000
0.084560 0.330624 0.165000
0.160563 0.357295 0.165000
0.225626 0.398072 0.165000
0.280839 0.448757 0.165000
0.318496 0.509553 0.165000
0.356724 0.575449 0.165000
0.395857 0.648637 0.165000
0.448757 0.719161 0.165000
0.531209 0.785498 0.165000
0.644855 0.841704 0.165000
0.804975 0.874824 0.165000
1.000000 0.890289 0.165000
0.000000 0.419109 0.165000
0.061039 0.426918 0.165000
0.118535 0.449550 0.165000
0.169352 0.484644 0.165000
0.214502 0.531209 0.165000
0.251338 0.588969 0.165000
0.291542 0.648753 0.165000
0.336892 0.713290 0.165000
0.398072 0.774374 0.165000
0.484644 0.830648 0.165000
0.607043 0.879400 0.165000
0.782056 0.908328 0.165000
1.000000 0.922525 0.165000
0.000000 0.555913 0.165000
0.041759 0.561472 0.165000
0.082608 0.579075 0.165000
0.120600 0.607043 0.165000
0.158296 0.644855 0.165000
0.195725 0.693168 0.165000
0.238525 0.742309 0.165000
0.289560 0.792922 0.165000
0.357295 0.839437 0.165000
0.449550 0.881465 0.165000
0.579075 0.917392 0.165000
0.765237 0.939538 0.165000
1.000000 0.949586 0.165000
0.000000 0.750068 0.165000
0.029884 0.753640 0.165000
0.060462 0.765237 0.165000
0.091672 0.782056 0.165000
0.125176 0.804975 0.165000
0.161451 0.833231 0.165000
0.205843 0.861317 0.165000
0.260457 0.889786 0.165000
0.330624 0.915440 0.165000
0.426918 0.938961 0.165000
0.561472 0.958242 0.165000
0.753640 0.970116 0.165000
1.000000 0.975545 0.165000
0.000000 1.000000 0.165000
0.024455 1.000000 0.165000
0.050414 1.000000 0.165000
0.077475 1.000000 0.165000
0.109711 1.000000 0.165000
0.146256 1.000000 0.165000
0.192072 1.000000 0.165000
0.249683 1.000000 0.165000
0.321798 1.000000 0.165000
0.419109 1.000000 0.165000
0.555913 1.000000 0.165000
0.750068 1.000000 0.165000
1.000000 1.000000 0.165000
0.000000 0.000000 0.247500
0.249933 0.000000 0.247500
0.444087 0.000000 0.247500
0.580891 0.000000 0.247500
0.678202 0.000000 0.247500
0.750317 0.000000 0.247500
0.807928 0.000000 0.247500
0.853744 0.000000 0.247500
0.890289 0.000000 0.247500
0.922525 0.000000 0.247500
0.949586 0.000000 0.247500
0.975545 0.000000 0.247500
1.000000 0.000000 0.247500
0.000000 0.024455 0.247500
0.246360 0.029884 0.247500
0.438528 0.041759 0.247500
0.573082 0.061039 0.247500
0.669376 0.084560 0.247500
0.739543 0.110215 0.247500
0.794157 0.138683 0.247500
0.838549 0.166769 0.247500
0.874824 0.195025 0.247500
0.908328 0.217945 0.247500
0.939538 0.234763 0.247500
0.970116 0.246360 0.247500
1.000000 0.249933 0.247500
0.000000 0.050414 0.247500
0.234763 0.060462 0.247500
0.420925 0.082608 0.247500
0.550450 0.118535 0.247500
0.642705 0.160563 0.247500
0.710440 0.207078 0.247500
0.761475 0.257691 0.247500
0.804275 0.306832 0.247500
0.841704 0.355145 0.247500
0.879400 0.392957 0.247500
0.917392 0.420925 0.247500
0.958242 0.438528 0.247500
1.000000 0.444087 0.247500
0.000000 0.077475 0.247500
0.217945 0.091672 0.247500
0.392957 0.120600 0.247500
0.515356 0.169352 0.247500
0.601928 0.225626 0.247500
0.663108 0.286710 0.247500
0.708458 0.351247 0.247500
0.748662 0.411031 0.247500
0.785498 0.468791 0.247500
0.830648 0.515356 0.247500
0.881465 0.550450 0.247500
0.938961 0.573082 0.247500
1.000000 0.580891 0.247500
0.000000 0.109711 0.247500
0.195025 0.125176 0.247500
0.355145 0.158296 0.247500
0.468791 0.214502 0.247500
0.551243 0.280839 0.247500
0.604143 0.351363 0.247500
0.643276 0.424551 0.247500
0.681504 0.490447 0.247500
0.719161 0.551243 0.247500
0.774374 0.601928 0.247500
0.839437 0.642705 0.247500
0.915440 0.669376 0.247500
1.000000 0.678202 0.247500
0.000000 0.146256 0.247500
0.166769 0.161451 0.247500
0.306832 0.195725 0.247500
0.411031 0.251338 0.247500
0.490447 0.318496 0.247500
0.537617 0.390691 0.247500
0.573418 0.465867 0.247500
0.609309 0.537617 0.247500
0.648637 0.604143 0.247500
0.713290 0.663108 0.247500
0.792922 0.710440 0.247500
0.889786 0.739543 0.247500
1.000000 0.750317 0.247500
0.000000 0.192072 0.247500
0.138683 0.205843 0.247500
0.257691 0.238525 0.247500
0.351247 0.291542 0.247500
0.424551 0.356724 0.247500
0.465867 0.426582 0.247500
0.500000 0.500000 0.247500
0.534133 0.573418 0.247500
0.575449 0.643276 0.247500
0.648753 0.708458 0.247500
0.742309 0.761475 0.247500
0.861317 0.794157 0.247500
1.000000 0.807928 0.247500
0.000000 0.249683 0.247500
0.110215 0.260457 0.247500
0.207078 0.289560 0.247500
0.286710 0.336892 0.247500
0.351363 0.395857 0.247500
0.390691 0.462383 0.247500
0.426582 0.534133 0.247500
0.462383 0.609309 0.247500
0.509553 0.681504 0.247500
0.588969 0.748662 0.247500
0.693168 0.804275 0.247500
0.833231 0.838549 0.247500
1.000000 0.853744 0.247500
0.000000 0.321798 0.247500
0.084560 0.330624 0.247500
0.160563 0.357295 0.247500
0.225626 0.398072 0.247500
0.280839 0.448757 0.247500
0.318496 0.509553 0.247500
0.356724 0.575449 0.247500
0.395857 0.648637 0.247500
0.448757 0.719161 0.247500
0.531209 0.785498 0.247500
0.644855 0.841704 0.247500
0.804975 0.874824 0.247500
1.000000 0.890289 0.247500
0.000000 0.419109 0.247500
0.061039 0.426918 0.247500
0.118535 0.449550 0.247500
0.169352 0.484644 0.247500
0.214502 0.531209 0.247500
0.251338 0.588969 0.247500
0.291542 0.648753 0.247500
0.336892 0.713290 0.247500
0.398072 0.774374 0.247500
0.484644 0.830648 0.247500
0.607043 0.879400 0.247500
0.782056 0.908328 0.247500
1.000000 0.922525 0.247500
0.000000 0.555913 0.247500
0.041759 0.561472 0.247500
0.082608 0.579075 0.247500
0.120600 0.607043 0.247500
0.158296 0.644855 0.247500
0.195725 0.693168 0.247500
0.238525 0.742309 0.247500
0.289560 0.792922 0.247500
0.357295 0.839437 0.247500
0.449550 0.881465 0.247500
0.579075 0.917392 0.247500
0.765237 0.939538 0.247500
1.000000 0.949586 0.247500
0.000000 0.750068 0.247500
0.029884 0.753640 0.247500
0.060462 0.765237 0.247500
0.091672 0.782056 0.247500
0.125176 0.804975 0.247500
0.161451 0.833231 0.247500
0.205843 0.861317 0.247500
0.260457 0.889786 0.247500
0.330624 0.915440 0.247500
0.426918 0.938961 0.247500
0.561472 0.958242 0.247500
0.753640 0.970116 0.247500
1.000000 0.975545 0.247500
0.000000 1.000000 0.247500
0.024455 1.000000 0.247500
0.050414 1.000000 0.247500
0.077475 1.000000 0.247500
0.109711 1.000000 0.247500
0.146256 1.000000 0.247500
0.192072 1.000000 0.247500
0.249683 1.000000 0.247500
0.321798 1.000000 0.247500
0.419109 1.000000 0.247500
0.555913 1.000000 0.247500
0.750068 1.000000 0.247500
1.000000 1.000000 0.247500
0.000000 0.000000 0.330000
0.249933 0.000000 0.330000
0.444087 0.000000 0.330000
0.580891 0.000000 0.330000
0.678202 0.000000 0.330000
0.750317 0.000000 0.330000
0.807928 0.000000 0.330000
0.853744 0.000000 0.330000
0.890289 0.000000 0.330000
0.922525 0.000000 0.330000
0.949586 0.000000 0.330000
0.975545 0.000000 0.330000
1.000000 0.000000 0.330000
0.000000 0.024455 0.330000
0.246360 0.029884 0.330000
0.438528 0.041759 0.330000
0.573082 0.061039 0.330000
0.669376 0.084560 0.330000
0.739543 0.110215 0.330000
0.794157 0.138683 0.330000
0.838549 0.166769 0.330000
0.874824 0.195025 0.330000
0.908328 0.217945 0.330000
0.939538 0.234763 0.330000
0.970116 0.246360 0.330000
1.000000 0.249933 0.330000
0.000000 0.050414 0.330000
0.234763 0.060462 0.330000
0.420925 0.082608 0.330000
0.550450 0.118535 0.330000
0.642705 0.160563 0.330000
0.710440 0.207078 0.330000
0.761475 0.257691 0.330000
0.804275 0.306832 0.330000
0.841704 0.355145 0.330000
0.879400 0.392957 0.330000
0.917392 0.420925 0.330000
0.958242 0.438528 0.330000
1.000000 0.444087 0.330000
0.000000 0.077475 0.330000
0.217945 0.091672 0.330000
0.392957 0.120600 0.330000
0.515356 0.169352 0.330000
0.601928 0.225626 0.330000
0.663108 0.286710 0.330000
0.708458 0.351247 0.330000
0.748662 0.411031 0.330000
0.785498 0.468791 0.330000
0.830648 0.515356 0.330000
0.881465 0.550450 0.330000
0.938961 0.573082 0.330000
1.000000 0.580891 0.330000
0.000000 0.109711 0.330000
0.195025 0.125176 0.330000
0.355145 0.158296 0.330000
0.468791 0.214502 0.330000
0.551243 0.280839 0.330000
0.604143 0.351363 0.330000
0.643276 0.424551 0.330000
0.681504 0.490447 0.330000
0.719161 0.551243 0.330000
0.774374 0.601928 0.330000
0.839437 0.642705 0.330000