# vtk DataFile Version 2.0
Mesh for Fierro
ASCII 
DATASET UNSTRUCTURED_GRID

POINTS 845 float
0.000000 0.000000 0.000000
0.555419 0.000000 0.000000
0.891326 0.000000 0.000000
0.919663 0.000000 0.000000
0.937649 0.000000 0.000000
0.952438 0.000000 0.000000
0.964010 0.000000 0.000000
0.971289 0.000000 0.000000
0.976069 0.000000 0.000000
0.980440 0.000000 0.000000
0.984113 0.000000 0.000000
0.992520 0.000000 0.000000
1.000000 0.000000 0.000000
0.000000 0.007480 0.000000
0.593626 0.016514 0.000000
0.865313 0.079137 0.000000
0.870458 0.211981 0.000000
0.897442 0.286178 0.000000
0.905531 0.383608 0.000000
0.913120 0.469283 0.000000
0.921031 0.545138 0.000000
0.929958 0.603359 0.000000
0.943184 0.640467 0.000000
0.959454 0.654176 0.000000
0.983486 0.593626 0.000000
1.000000 0.555419 0.000000
0.000000 0.015887 0.000000
0.654176 0.040546 0.000000
0.810355 0.154635 0.000000
0.842243 0.302687 0.000000
0.845639 0.472681 0.000000
0.845960 0.563506 0.000000
0.835906 0.639139 0.000000
0.812136 0.684273 0.000000
0.799328 0.718873 0.000000
0.809332 0.756788 0.000000
0.845365 0.810355 0.000000
0.920863 0.865313 0.000000
1.000000 0.891327 0.000000
0.000000 0.019560 0.000000
0.640467 0.056816 0.000000
0.756788 0.190668 0.000000
0.817953 0.360680 0.000000
0.760189 0.499056 0.000000
0.754467 0.581629 0.000000
0.703669 0.650614 0.000000
0.652578 0.714451 0.000000
0.633187 0.773288 0.000000
0.639320 0.817953 0.000000
0.697313 0.842243 0.000000
0.788019 0.870458 0.000000
1.000000 0.919663 0.000000
0.000000 0.023931 0.000000
0.603359 0.070042 0.000000
0.718873 0.200672 0.000000
0.773288 0.366813 0.000000
0.701333 0.487372 0.000000
0.661089 0.584905 0.000000
0.588130 0.627903 0.000000
0.548065 0.669892 0.000000
0.512628 0.701333 0.000000
0.500944 0.760189 0.000000
0.527319 0.845639 0.000000
0.713823 0.897442 0.000000
1.000000 0.937649 0.000000
0.000000 0.028711 0.000000
0.545138 0.078969 0.000000
0.684273 0.187864 0.000000
0.714451 0.347422 0.000000
0.669892 0.451935 0.000000
0.610586 0.529806 0.000000
0.538702 0.565914 0.000000
0.470194 0.610586 0.000000
0.415095 0.661089 0.000000
0.418371 0.754467 0.000000
0.436494 0.845960 0.000000
0.616393 0.905531 0.000000
1.000000 0.952438 0.000000
0.000000 0.035990 0.000000
0.469283 0.086880 0.000000
0.639139 0.164094 0.000000
0.650614 0.296331 0.000000
0.627903 0.411870 0.000000
0.565914 0.461298 0.000000
0.500000 0.500000 0.000000
0.434086 0.538702 0.000000
0.372097 0.588130 0.000000
0.349386 0.703669 0.000000
0.360861 0.835906 0.000000
0.530719 0.913120 0.000000
1.000000 0.964010 0.000000
0.000000 0.047562 0.000000
0.383608 0.094469 0.000000
0.563506 0.154040 0.000000
0.581629 0.245533 0.000000
0.584905 0.338911 0.000000
0.529806 0.389414 0.000000
0.461298 0.434086 0.000000
0.389414 0.470194 0.000000
0.330108 0.548065 0.000000
0.285549 0.652578 0.000000
0.315727 0.812136 0.000000
0.454863 0.921031 0.000000
1.000000 0.971289 0.000000
0.000000 0.062351 0.000000
0.286177 0.102558 0.000000
0.472681 0.154361 0.000000
0.499056 0.239811 0.000000
0.487372 0.298667 0.000000
0.451935 0.330108 0.000000
0.411870 0.372097 0.000000
0.338911 0.415095 0.000000
0.298667 0.512628 0.000000
0.226712 0.633186 0.000000
0.281127 0.799328 0.000000
0.396642 0.929958 0.000000
1.000000 0.976069 0.000000
0.000000 0.080337 0.000000
0.211981 0.129542 0.000000
0.302687 0.157757 0.000000
0.360680 0.182047 0.000000
0.366814 0.226713 0.000000
0.347422 0.285549 0.000000
0.296331 0.349386 0.000000
0.245533 0.418371 0.000000
0.239811 0.500944 0.000000
0.182047 0.639320 0.000000
0.243211 0.809331 0.000000
0.359534 0.943184 0.000000
1.000000 0.980440 0.000000
0.000000 0.108673 0.000000
0.079137 0.134687 0.000000
0.154636 0.189645 0.000000
0.190668 0.243211 0.000000
0.200672 0.281127 0.000000
0.187864 0.315727 0.000000
0.164094 0.360861 0.000000
0.154040 0.436494 0.000000
0.154361 0.527319 0.000000
0.157756 0.697313 0.000000
0.189645 0.845365 0.000000
0.345825 0.959454 0.000000
1.000000 0.984113 0.000000
0.000000 0.444581 0.000000
0.016514 0.406374 0.000000
0.040546 0.345825 0.000000
0.056816 0.359534 0.000000
0.070042 0.396642 0.000000
0.078969 0.454863 0.000000
0.086880 0.530719 0.000000
0.094469 0.616393 0.000000
0.102558 0.713823 0.000000
0.129542 0.788020 0.000000
0.134687 0.920863 0.000000
0.406374 0.983486 0.000000
1.000000 0.992520 0.000000
0.000000 1.000000 0.000000
0.007480 1.000000 0.000000
0.015887 1.000000 0.000000
0.019560 1.000000 0.000000
0.023931 1.000000 0.000000
0.028711 1.000000 0.000000
0.035990 1.000000 0.000000
0.047562 1.000000 0.000000
0.062351 1.000000 0.000000
0.080337 1.000000 0.000000
0.108673 1.000000 0.000000
0.444581 1.000000 0.000000
1.000000 1.000000 0.000000
0.000000 0.000000 0.082500
0.555419 0.000000 0.082500
0.891326 0.000000 0.082500
0.919663 0.000000 0.082500
0.937649 0.000000 0.082500
0.952438 0.000000 0.082500
0.964010 0.000000 0.082500
0.971289 0.000000 0.082500
0.976069 0.000000 0.082500
0.980440 0.000000 0.082500
0.984113 0.000000 0.082500
0.992520 0.000000 0.082500
1.000000 0.000000 0.082500
0.000000 0.007480 0.082500
0.593626 0.016514 0.082500
0.865313 0.079137 0.082500
0.870458 0.211981 0.082500
0.897442 0.286178 0.082500
0.905531 0.383608 0.082500
0.913120 0.469283 0.082500
0.921031 0.545138 0.082500
0.929958 0.603359 0.082500
0.943184 0.640467 0.082500
0.959454 0.654176 0.082500
0.983486 0.593626 0.082500
1.000000 0.555419 0.082500
0.000000 0.015887 0.082500
0.654176 0.040546 0.082500
0.810355 0.154635 0.082500
0.842243 0.302687 0.082500
0.845639 0.472681 0.082500
0.845960 0.563506 0.082500
0.835906 0.639139 0.082500
0.812136 0.684273 0.082500
0.799328 0.718873 0.082500
0.809332 0.756788 0.082500
0.845365 0.810355 0.082500
0.920863 0.865313 0.082500
1.000000 0.891327 0.082500
0.000000 0.019560 0.082500
0.640467 0.056816 0.082500
0.756788 0.190668 0.082500
0.817953 0.360680 0.082500
0.760189 0.499056 0.082500
0.754467 0.581629 0.082500
0.703669 0.650614 0.082500
0.652578 0.714451 0.082500
0.633187 0.773288 0.082500
0.639320 0.817953 0.082500
0.697313 0.842243 0.082500
0.788019 0.870458 0.082500
1.000000 0.919663 0.082500
0.000000 0.023931 0.082500
0.603359 0.070042 0.082500
0.718873 0.200672 0.082500
0.773288 0.366813 0.082500
0.701333 0.487372 0.082500
0.661089 0.584905 0.082500
0.588130 0.627903 0.082500
0.548065 0.669892 0.082500
0.512628 0.701333 0.082500
0.500944 0.760189 0.082500
0.527319 0.845639 0.082500
0.713823 0.897442 0.082500
1.000000 0.937649 0.082500
0.000000 0.028711 0.082500
0.545138 0.078969 0.082500
0.684273 0.187864 0.082500
0.714451 0.347422 0.082500
0.669892 0.451935 0.082500
0.610586 0.529806 0.082500
0.538702 0.565914 0.082500
0.470194 0.610586 0.082500
0.415095 0.661089 0.082500
0.418371 0.754467 0.082500
0.436494 0.845960 0.082500
0.616393 0.905531 0.082500
1.000000 0.952438 0.082500
0.000000 0.035990 0.082500
0.469283 0.086880 0.082500
0.639139 0.164094 0.082500
0.650614 0.296331 0.082500
0.627903 0.411870 0.082500
0.565914 0.461298 0.082500
0.500000 0.500000 0.082500
0.434086 0.538702 0.082500
0.372097 0.588130 0.082500
0.349386 0.703669 0.082500
0.360861 0.835906 0.082500
0.530719 0.913120 0.082500
1.000000 0.964010 0.082500
0.000000 0.047562 0.082500
0.383608 0.094469 0.082500
0.563506 0.154040 0.082500
0.581629 0.245533 0.082500
0.584905 0.338911 0.082500
0.529806 0.389414 0.082500
0.461298 0.434086 0.082500
0.389414 0.470194 0.082500
0.330108 0.548065 0.082500
0.285549 0.652578 0.082500
0.315727 0.812136 0.082500
0.454863 0.921031 0.082500
1.000000 0.971289 0.082500
0.000000 0.062351 0.082500
0.286177 0.102558 0.082500
0.472681 0.154361 0.082500
0.499056 0.239811 0.082500
0.487372 0.298667 0.082500
0.451935 0.330108 0.082500
0.411870 0.372097 0.082500
0.338911 0.415095 0.082500
0.298667 0.512628 0.082500
0.226712 0.633186 0.082500
0.281127 0.799328 0.082500
0.396642 0.929958 0.082500
1.000000 0.976069 0.082500
0.000000 0.080337 0.082500
0.211981 0.129542 0.082500
0.302687 0.157757 0.082500
0.360680 0.182047 0.082500
0.366814 0.226713 0.082500
0.347422 0.285549 0.082500
0.296331 0.349386 0.082500
0.245533 0.418371 0.082500
0.239811 0.500944 0.082500
0.182047 0.639320 0.082500
0.243211 0.809331 0.082500
0.359534 0.943184 0.082500
1.000000 0.980440 0.082500
0.000000 0.108673 0.082500
0.079137 0.134687 0.082500
0.154636 0.189645 0.082500
0.190668 0.243211 0.082500
0.200672 0.281127 0.082500
0.187864 0.315727 0.082500
0.164094 0.360861 0.082500
0.154040 0.436494 0.082500
0.154361 0.527319 0.082500
0.157756 0.697313 0.082500
0.189645 0.845365 0.082500
0.345825 0.959454 0.082500
1.000000 0.984113 0.082500
0.000000 0.444581 0.082500
0.016514 0.406374 0.082500
0.040546 0.345825 0.082500
0.056816 0.359534 0.082500
0.070042 0.396642 0.082500
0.078969 0.454863 0.082500
0.086880 0.530719 0.082500
0.094469 0.616393 0.082500
0.102558 0.713823 0.082500
0.129542 0.788020 0.082500
0.134687 0.920863 0.082500
0.406374 0.983486 0.082500
1.000000 0.992520 0.082500
0.000000 1.000000 0.082500
0.007480 1.000000 0.082500
0.015887 1.000000 0.082500
0.019560 1.000000 0.082500
0.023931 1.000000 0.082500
0.028711 1.000000 0.082500
0.035990 1.000000 0.082500
0.047562 1.000000 0.082500
0.062351 1.000000 0.082500
0.080337 1.000000 0.082500
0.108673 1.000000 0.082500
0.444581 1.000000 0.082500
1.000000 1.000000 0.082500
0.000000 0.000000 0.165000
0.555419 0.000000 0.165000
0.891326 0.000000 0.165000
0.919663 0.000000 0.165000
0.937649 0.000000 0.165000
0.952438 0.000000 0.165000
0.964010 0.000000 0.165000
0.971289 0.000000 0.165000
0.976069 0.000000 0.165000
0.980440 0.000000 0.165000
0.984113 0.000000 0.165000
0.992520 0.000000 0.165000
1.000000 0.000000 0.165000
0.000000 0.007480 0.165000
0.593626 0.016514 0.165000
0.865313 0.079137 0.165000
0.870458 0.211981 0.165000
0.897442 0.286178 0.165000
0.905531 0.383608 0.165000
0.913120 0.469283 0.165000
0.921031 0.545138 0.165000
0.929958 0.603359 0.165000
0.943184 0.640467 0.165000
0.959454 0.654176 0.165000
0.983486 0.593626 0.165000
1.000000 0.555419 0.165000
0.000000 0.015887 0.165000
0.654176 0.040546 0.165000
[...]
POINT_DATA 845 
VECTORS pos float 
0.000000 0.000000 0.000000
0.555419 0.000000 0.000000
0.891326 0.000000 0.000000
0.919663 0.000000 0.000000
0.937649 0.000000 0.000000
0.952438 0.000000 0.000000
0.964010 0.000000 0.000000
0.971289 0.000000 0.000000
0.976069 0.000000 0.000000
0.980440 0.000000 0.000000
0.984113 0.000000 0.000000
0.992520 0.000000 0.000000
1.000000 0.000000 0.000000
0.000000 0.007480 0.000000
0.593626 0.016514 0.000000
0.865313 0.079137 0.000000
0.870458 0.211981 0.000000
0.897442 0.286178 0.000000
0.905531 0.383608 0.000000
0.913120 0.469283 0.000000
0.921031 0.545138 0.000000
0.929958 0.603359 0.000000
0.943184 0.640467 0.000000
0.959454 0.654176 0.000000
0.983486 0.593626 0.000000
1.000000 0.555419 0.000000
0.000000 0.015887 0.000000
0.654176 0.040546 0.000000
0.810355 0.154635 0.000000
0.842243 0.302687 0.000000
0.845639 0.472681 0.000000
0.845960 0.563506 0.000000
0.835906 0.639139 0.000000
0.812136 0.684273 0.000000
0.799328 0.718873 0.000000
0.809332 0.756788 0.000000
0.845365 0.810355 0.000000
0.920863 0.865313 0.000000
1.000000 0.891327 0.000000
0.000000 0.019560 0.000000
0.640467 0.056816 0.000000
0.756788 0.190668 0.000000
0.817953 0.360680 0.000000
0.760189 0.499056 0.000000
0.754467 0.581629 0.000000
0.703669 0.650614 0.000000
0.652578 0.714451 0.000000
0.633187 0.773288 0.000000
0.639320 0.817953 0.000000
0.697313 0.842243 0.000000
0.788019 0.870458 0.000000
1.000000 0.919663 0.000000
0.000000 0.023931 0.000000
0.603359 0.070042 0.000000
0.718873 0.200672 0.000000
0.773288 0.366813 0.000000
0.701333 0.487372 0.000000
0.661089 0.584905 0.000000
0.588130 0.627903 0.000000
0.548065 0.669892 0.000000
0.512628 0.701333 0.000000
0.500944 0.760189 0.000000
0.527319 0.845639 0.000000
0.713823 0.897442 0.000000
1.000000 0.937649 0.000000
0.000000 0.028711 0.000000
0.545138 0.078969 0.000000
0.684273 0.187864 0.000000
0.714451 0.347422 0.000000
0.669892 0.451935 0.000000
0.610586 0.529806 0.000000
0.538702 0.565914 0.000000
0.470194 0.610586 0.000000
0.415095 0.661089 0.000000
0.418371 0.754467 0.000000
0.436494 0.845960 0.000000
0.616393 0.905531 0.000000
1.000000 0.952438 0.000000
0.000000 0.035990 0.000000
0.469283 0.086880 0.000000
0.639139 0.164094 0.000000
0.650614 0.296331 0.000000
0.627903 0.411870 0.000000
0.565914 0.461298 0.000000
0.500000 0.500000 0.000000
0.434086 0.538702 0.000000
0.372097 0.588130 0.000000
0.349386 0.703669 0.000000
0.360861 0.835906 0.000000
0.530719 0.913120 0.000000
1.000000 0.964010 0.000000
0.000000 0.047562 0.000000
0.383608 0.094469 0.000000
0.563506 0.154040 0.000000
0.581629 0.245533 0.000000
0.584905 0.338911 0.000000
0.529806 0.389414 0.000000
0.461298 0.434086 0.000000
0.389414 0.470194 0.000000
0.330108 0.548065 0.000000
0.285549 0.652578 0.000000
0.315727 0.812136 0.000000
0.454863 0.921031 0.000000
1.000000 0.971289 0.000000
0.000000 0.062351 0.000000
0.286177 0.102558 0.000000
0.472681 0.154361 0.000000
0.499056 0.239811 0.000000
0.487372 0.298667 0.000000
0.451935 0.330108 0.000000
0.411870 0.372097 0.000000
0.338911 0.415095 0.000000
0.298667 0.512628 0.000000
0.226712 0.633186 0.000000
0.281127 0.799328 0.000000
0.396642 0.929958 0.000000
1.000000 0.976069 0.000000
0.000000 0.080337 0.000000
0.211981 0.129542 0.000000
0.302687 0.157757 0.000000
0.360680 0.182047 0.000000
0.366814 0.226713 0.000000
0.347422 0.285549 0.000000
0.296331 0.349386 0.000000
0.245533 0.418371 0.000000
0.239811 0.500944 0.000000
0.182047 0.639320 0.000000
0.243211 0.809331 0.000000
0.359534 0.943184 0.000000
1.000000 0.980440 0.000000
0.000000 0.108673 0.000000
0.079137 0.134687 0.000000
0.154636 0.189645 0.000000
0.190668 0.243211 0.000000
0.200672 0.281127 0.000000
0.187864 0.315727 0.000000
0.164094 0.360861 0.000000
0.154040 0.436494 0.000000
0.154361 0.527319 0.000000
0.157756 0.697313 0.000000
0.189645 0.845365 0.000000
0.345825 0.959454 0.000000
1.000000 0.984113 0.000000
0.000000 0.444581 0.000000
0.016514 0.406374 0.000000
0.040546 0.345825 0.000000
0.056816 0.359534 0.000000
0.070042 0.396642 0.000000
0.078969 0.454863 0.000000
0.086880 0.530719 0.000000
0.094469 0.616393 0.000000
0.102558 0.713823 0.000000
0.129542 0.788020 0.000000
0.134687 0.920863 0.000000
0.406374 0.983486 0.000000
1.000000 0.992520 0.000000
0.000000 1.000000 0.000000
0.007480 1.000000 0.000000
0.015887 1.000000 0.000000
0.019560 1.000000 0.000000
0.023931 1.000000 0.000000
0.028711 1.000000 0.000000
0.035990 1.000000 0.000000
0.047562 1.000000 0.000000
0.062351 1.000000 0.000000
0.080337 1.000000 0.000000
0.108673 1.000000 0.000000
0.444581 1.000000 0.000000
1.000000 1.000000 0.000000
0.000000 0.000000 0.082500
0.555419 0.000000 0.082500
0.891326 0.000000 0.082500
0.919663 0.000000 0.082500
0.937649 0.000000 0.082500
0.952438 0.000000 0.082500
0.964010 0.000000 0.082500
0.971289 0.000000 0.082500
0.976069 0.000000 0.082500
0.980440 0.000000 0.082500
0.984113 0.000000 0.082500
0.992520 0.000000 0.082500
1.000000 0.000000 0.082500
0.000000 0.007480 0.082500
0.593626 0.016514 0.082500
0.865313 0.079137 0.082500
0.870458 0.211981 0.082500
0.897442 0.286178 0.082500
0.905531 0.383608 0.082500
0.913120 0.469283 0.082500
0.921031 0.545138 0.082500
0.929958 0.603359 0.082500
0.943184 0.640467 0.082500
0.959454 0.654176 0.082500
0.983486 0.593626 0.082500
1.000000 0.555419 0.082500
0.000000 0.015887 0.082500
0.654176 0.040546 0.082500
0.810355 0.154635 0.082500
0.842243 0.302687 0.082500
0.845639 0.472681 0.082500
0.845960 0.563506 0.082500
0.835906 0.639139 0.082500
0.812136 0.684273 0.082500
0.799328 0.718873 0.082500
0.809332 0.756788 0.082500
0.845365 0.810355 0.082500
0.920863 0.865313 0.082500
1.000000 0.891327 0.082500
0.000000 0.019560 0.082500
0.640467 0.056816 0.082500
0.756788 0.190668 0.082500
0.817953 0.360680 0.082500
0.760189 0.499056 0.082500
0.754467 0.581629 0.082500
0.703669 0.650614 0.082500
0.652578 0.714451 0.082500
0.633187 0.773288 0.082500
0.639320 0.817953 0.082500
0.697313 0.842243 0.082500
0.788019 0.870458 0.082500
1.000000 0.919663 0.082500
0.000000 0.023931 0.082500
0.603359 0.070042 0.082500
0.718873 0.200672 0.082500
0.773288 0.366813 0.082500
0.701333 0.487372 0.082500
0.661089 0.584905 0.082500
0.588130 0.627903 0.082500
0.548065 0.669892 0.082500
0.512628 0.701333 0.082500
0.500944 0.760189 0.082500
0.527319 0.845639 0.082500
0.713823 0.897442 0.082500
1.000000 0.937649 0.082500
0.000000 0.028711 0.082500
0.545138 0.078969 0.082500
0.684273 0.187864 0.082500
0.714451 0.347422 0.082500
0.669892 0.451935 0.082500
0.610586 0.529806 0.082500
0.538702 0.565914 0.082500
0.470194 0.610586 0.082500
0.415095 0.661089 0.082500
0.418371 0.754467 0.082500
0.436494 0.845960 0.082500
0.616393 0.905531 0.082500
1.000000 0.952438 0.082500
0.000000 0.035990 0.082500
0.469283 0.086880 0.082500
0.639139 0.164094 0.082500
0.650614 0.296331 0.082500
0.627903 0.411870 0.082500
0.565914 0.461298 0.082500
0.500000 0.500000 0.082500
0.434086 0.538702 0.082500
0.372097 0.588130 0.082500
0.349386 0.703669 0.082500
0.360861 0.835906 0.082500
0.530719 0.913120 0.082500
1.000000 0.964010 0.082500
0.000000 0.047562 0.082500
0.383608 0.094469 0.082500
0.563506 0.154040 0.082500
0.581629 0.245533 0.082500
0.584905 0.338911 0.082500
0.529806 0.389414 0.082500
0.461298 0.434086 0.082500
0.389414 0.470194 0.082500
0.330108 0.548065 0.082500
0.285549 0.652578 0.082500
0.315727 0.812136 0.082500
0.454863 0.921031 0.082500
1.000000 0.971289 0.082500
0.000000 0.062351 0.082500
0.286177 0.102558 0.082500
0.472681 0.154361 0.082500
0.499056 0.239811 0.082500
0.487372 0.298667 0.082500
0.451935 0.330108 0.082500
0.411870 0.372097 0.082500
0.338911 0.415095 0.082500
0.298667 0.512628 0.082500
0.226712 0.633186 0.082500
0.281127 0.799328 0.082500
0.396642 0.929958 0.082500
1.000000 0.976069 0.082500
0.000000 0.080337 0.082500
0.211981 0.129542 0.082500
0.302687 0.157757 0.082500
0.360680 0.182047 0.082500
0.366814 0.226713 0.082500
0.347422 0.285549 0.082500
0.296331 0.349386 0.082500
0.245533 0.418371 0.082500
0.239811 0.500944 0.082500
0.182047 0.639320 0.082500
0.243211 0.809331 0.082500
0.359534 0.943184 0.082500
1.000000 0.980440 0.082500
0.000000 0.108673 0.082500
0.079137 0.134687 0.082500
0.154636 0.189645 0.082500
0.190668 0.243211 0.082500
0.200672 0.281127 0.082500
0.187864 0.315727 0.082500
0.164094 0.360861 0.082500
0.154040 0.436494 0.082500
0.154361 0.527319 0.082500
0.157756 0.697313 0.082500
0.189645 0.845365 0.082500
0.345825 0.959454 0.082500
1.000000 0.984113 0.082500
0.000000 0.444581 0.082500
0.016514 0.406374 0.082500
0.040546 0.345825 0.082500
0.056816 0.359534 0.082500
0.070042 0.396642 0.082500
0.078969 0.454863 0.082500
0.086880 0.530719 0.082500
0.094469 0.616393 0.082500
0.102558 0.713823 0.082500
0.129542 0.788020 0.082500
0.134687 0.920863 0.082500
0.406374 0.983486 0.082500
1.000000 0.992520 0.082500
0.000000 1.000000 0.082500
0.007480 1.000000 0.082500
0.015887 1.000000 0.082500
0.019560 1.000000 0.082500
0.023931 1.000000 0.082500
0.028711 1.000000 0.082500
0.035990 1.000000 0.082500
0.047562 1.000000 0.082500
0.062351 1.000000 0.082500
0.080337 1.000000 0.082500
0.108673 1.000000 0.082500
0.444581 1.000000 0.082500
1.000000 1.000000 0.082500
0.000000 0.000000 0.165000
0.555419 0.000000 0.165000
0.891326 0.000000 0.165000
0.919663 0.000000 0.165000
0.937649 0.000000 0.165000
0.952438 0.000000 0.165000
0.964010 0.000000 0.165000
0.971289 0.000000 0.165000
0.976069 0.000000 0.165000
0.980440 0.000000 0.165000
0.984113 0.000000 0.165000
0.992520 0.000000 0.165000
1.000000 0.000000 0.165000
0.000000 0.007480 0.165000
0.593626 0.016514 0.165000
0.865313 0.079137 0.165000
0.870458 0.211981 0.165000
0.897442 0.286178 0.165000
0.905531 0.383608 0.165000
0.913120 0.469283 0.165000
0.921031 0.545138 0.165000
0.929958 0.603359 0.165000
0.943184 0.640467 0.165000
0.959454 0.654176 0.165000
0.983486 0.593626 0.165000
1.000000 0.555419 0.165000
0.000000 0.015887 0.165000
0.654176 0.040546 0.165000
0.810355 0.154635 0.165000
0.842243 0.302687 0.165000
0.845639 0.472681 0.165000
0.845960 0.563506 0.165000
0.835906 0.639139 0.165000
0.812136 0.684273 0.165000
0.799328 0.718873 0.165000
0.809332 0.756788 0.165000
0.845365 0.810355 0.165000
0.920863 0.865313 0.165000
1.000000 0.891327 0.165000
0.000000 0.019560 0.165000
0.640467 0.056816 0.165000
0.756788 0.190668 0.165000
0.817953 0.360680 0.165000
0.760189 0.499056 0.165000
0.754467 0.581629 0.165000
0.703669 0.650614 0.165000
0.652578 0.714451 0.165000
0.633187 0.773288 0.165000
0.639320 0.817953 0.165000
0.697313 0.842243 0.165000
0.788019 0.870458 0.165000
1.000000 0.919663 0.165000
0.000000 0.023931 0.165000
0.603359 0.070042 0.165000
0.718873 0.200672 0.165000
0.773288 0.366813 0.165000
0.701333 0.487372 0.165000
0.661089 0.584905 0.165000
0.588130 0.627903 0.165000
0.548065 0.669892 0.165000
0.512628 0.701333 0.165000
0.500944 0.760189 0.165000
0.527319 0.845639 0.165000
0.713823 0.897442 0.165000
1.000000 0.937649 0.165000
0.000000 0.028711 0.165000
0.545138 0.078969 0.165000
0.684273 0.187864 0.165000
0.714451 0.347422 0.165000
0.669892 0.451935 0.165000
0.610586 0.529806 0.165000
0.538702 0.565914 0.165000
0.470194 0.610586 0.165000
0.415095 0.661089 0.165000
0.418371 0.754467 0.165000
0.436494 0.845960 0.165000
0.616393 0.905531 0.165000
1.000000 0.952438 0.165000
0.000000 0.035990 0.165000
0.469283 0.086880 0.165000
0.639139 0.164094 0.165000
0.650614 0.296331 0.165000
0.627903 0.411870 0.165000
0.565914 0.461298 0.165000
0.500000 0.500000 0.165000
0.434086 0.538702 0.165000
0.372097 0.588130 0.165000
0.349386 0.703669 0.165000
0.360861 0.835906 0.165000
0.530719 0.913120 0.165000
1.000000 0.964010 0.165000
0.000000 0.047562 0.165000
0.383608 0.094469 0.165000
0.563506 0.154040 0.165000
0.581629 0.245533 0.165000
0.584905 0.338911 0.165000
0.529806 0.389414 0.165000
0.461298 0.434086 0.165000
0.389414 0.470194 0.165000
0.330108 0.548065 0.165000
0.285549 0.652578 0.165000
0.315727 0.812136 0.165000
0.454863 0.921031 0.165000
1.000000 0.971289 0.165000
0.000000 0.062351 0.165000
0.286177 0.102558 0.165000
0.472681 0.154361 0.165000
0.499056 0.239811 0.165000
0.487372 0.298667 0.165000
0.451935 0.330108 0.165000
0.411870 0.372097 0.165000
0.338911 0.415095 0.165000
0.298667 0.512628 0.165000
0.226712 0.633186 0.165000
0.281127 0.799328 0.165000
0.396642 0.929958 0.165000
1.000000 0.976069 0.165000
0.000000 0.080337 0.165000
0.211981 0.129542 0.165000
0.302687 0.157757 0.165000
0.360680 0.182047 0.165000
0.366814 0.226713 0.165000
0.347422 0.285549 0.165000
0.296331 0.349386 0.165000
0.245533 0.418371 0.165000
0.239811 0.500944 0.165000
0.182047 0.639320 0.165000
0.243211 0.809331 0.165000
0.359534 0.943184 0.165000
1.000000 0.980440 0.165000
0.000000 0.108673 0.165000
0.079137 0.134687 0.165000
0.154636 0.189645 0.165000
0.190668 0.243211 0.165000
0.200672 0.281127 0.165000
0.187864 0.315727 0.165000
0.164094 0.360861 0.165000
0.154040 0.436494 0.165000
0.154361 0.527319 0.165000
0.157756 0.697313 0.165000
0.189645 0.845365 0.165000
0.345825 0.959454 0.165000
1.000000 0.984113 0.165000
0.000000 0.444581 0.165000
0.016514 0.406374 0.165000
0.040546 0.345825 0.165000
0.056816 0.359534 0.165000
0.070042 0.396642 0.165000
0.078969 0.454863 0.165000
0.086880 0.530719 0.165000
0.094469 0.616393 0.165000
0.102558 0.713823 0.165000
0.129542 0.788020 0.165000
0.134687 0.920863 0.165000
0.406374 0.983486 0.165000
1.000000 0.992520 0.165000
0.000000 1.000000 0.165000
0.007480 1.000000 0.165000
0.015887 1.000000 0.165000
0.019560 1.000000 0.165000
0.023931 1.000000 0.165000
0.028711 1.000000 0.165000
0.035990 1.000000 0.165000
0.047562 1.000000 0.165000
0.062351 1.000000 0.165000
0.080337 1.000000 0.165000
0.108673 1.000000 0.165000
0.444581 1.000000 0.165000
1.000000 1.000000 0.165000
0.000000 0.000000 0.247500
0.555419 0.000000 0.247500
0.891326 0.000000 0.247500
0.919663 0.000000 0.247500
0.937649 0.000000 0.247500
0.952438 0.000000 0.247500
0.964010 0.000000 0.247500
0.971289 0.000000 0.247500
0.976069 0.000000 0.247500
0.980440 0.000000 0.247500
0.984113 0.000000 0.247500
0.992520 0.000000 0.247500
1.000000 0.000000 0.247500
0.000000 0.007480 0.247500
0.593626 0.016514 0.247500
0.865313 0.079137 0.247500
0.870458 0.211981 0.247500
0.897442 0.286178 0.247500
0.905531 0.383608 0.247500
0.913120 0.469283 0.247500
0.921031 0.545138 0.247500
0.929958 0.603359 0.247500
0.943184 0.640467 0.247500
0.959454 0.654176 0.247500
0.983486 0.593626 0.247500
1.000000 0.555419 0.247500
0.000000 0.015887 0.247500
0.654176 0.040546 0.247500
0.810355 0.154635 0.247500
0.842243 0.302687 0.247500
0.845639 0.472681 0.247500
0.845960 0.563506 0.247500
0.835906 0.639139 0.247500
0.812136 0.684273 0.247500
0.799328 0.718873 0.247500
0.809332 0.756788 0.247500
0.845365 0.810355 0.247500
0.920863 0.865313 0.247500
1.000000 0.891327 0.247500
0.000000 0.019560 0.247500
0.640467 0.056816 0.247500
0.756788 0.190668 0.247500
0.817953 0.360680 0.247500
0.760189 0.499056 0.247500
0.754467 0.581629 0.247500
0.703669 0.650614 0.247500
0.652578 0.714451 0.247500
0.633187 0.773288 0.247500
0.639320 0.817953 0.247500
0.697313 0.842243 0.247500
0.788019 0.870458 0.247500
1.000000 0.919663 0.247500
0.000000 0.023931 0.247500
0.603359 0.070042 0.247500
0.718873 0.200672 0.247500
0.773288 0.366813 0.247500
0.701333 0.487372 0.247500
0.661089 0.584905 0.247500
0.588130 0.627903 0.247500
0.548065 0.669892 0.247500
0.512628 0.701333 0.247500
0.500944 0.760189 0.247500
0.527319 0.845639 0.247500
0.713823 0.897442 0.247500
1.000000 0.937649 0.247500
0.000000 0.028711 0.247500
0.545138 0.078969 0.247500
0.684273 0.187864 0.247500
0.714451 0.347422 0.247500
0.669892 0.451935 0.247500
0.610586 0.529806 0.247500
0.538702 0.565914 0.247500
0.470194 0.610586 0.247500
0.415095 0.661089 0.247500
0.418371 0.754467 0.247500
0.436494 0.845960 0.247500
0.616393 0.905531 0.247500
1.000000 0.952438 0.247500
0.000000 0.035990 0.247500
0.469283 0.086880 0.247500
0.639139 0.164094 0.247500
0.650614 0.296331 0.247500
0.627903 0.411870 0.247500
0.565914 0.461298 0.247500
0.500000 0.500000 0.247500
0.434086 0.538702 0.247500
0.372097 0.588130 0.247500
0.349386 0.703669 0.247500
0.360861 0.835906 0.247500
0.530719 0.913120 0.247500
1.000000 0.964010 0.247500
0.000000 0.047562 0.247500
0.383608 0.094469 0.247500
0.563506 0.154040 0.247500
0.581629 0.245533 0.247500
0.584905 0.338911 0.247500
0.529806 0.389414 0.247500
0.461298 0.434086 0.247500
0.389414 0.470194 0.247500
0.330108 0.548065 0.247500
0.285549 0.652578 0.247500
0.315727 0.812136 0.247500
0.454863 0.921031 0.247500
1.000000 0.971289 0.247500
0.000000 0.062351 0.247500
0.286177 0.102558 0.247500
0.472681 0.154361 0.247500
0.499056 0.239811 0.247500
0.487372 0.298667 0.247500
0.451935 0.330108 0.247500
0.411870 0.372097 0.247500
0.338911 0.415095 0.247500
0.298667 0.512628 0.247500
0.226712 0.633186 0.247500
0.281127 0.799328 0.247500
0.396642 0.929958 0.247500
1.000000 0.976069 0.247500
0.000000 0.080337 0.247500
0.211981 0.129542 0.247500
0.302687 0.157757 0.247500
0.360680 0.182047 0.247500
0.366814 0.226713 0.247500
0.347422 0.285549 0.247500
0.296331 0.349386 0.247500
0.245533 0.418371 0.247500
0.239811 0.500944 0.247500
0.182047 0.639320 0.247500
0.243211 0.809331 0.247500
0.359534 0.943184 0.247500
1.000000 0.980440 0.247500
0.000000 0.108673 0.247500
0.079137 0.134687 0.247500
0.154636 0.189645 0.247500
0.190668 0.243211 0.247500
0.200672 0.281127 0.247500
0.187864 0.315727 0.247500
0.164094 0.360861 0.247500
0.154040 0.436494 0.247500
0.154361 0.527319 0.247500
0.157756 0.697313 0.247500
0.189645 0.845365 0.247500
0.345825 0.959454 0.247500
1.000000 0.984113 0.247500
0.000000 0.444581 0.247500
0.016514 0.406374 0.247500
0.040546 0.345825 0.247500
0.056816 0.359534 0.247500
0.070042 0.396642 0.247500
0.078969 0.454863 0.247500
0.086880 0.530719 0.247500
0.094469 0.616393 0.247500
0.102558 0.713823 0.247500
0.129542 0.788020 0.247500
0.134687 0.920863 0.247500
0.406374 0.983486 0.247500
1.000000 0.992520 0.247500
0.000000 1.000000 0.247500
0.007480 1.000000 0.247500
0.015887 1.000000 0.247500
0.019560 1.000000 0.247500
0.023931 1.000000 0.247500
0.028711 1.000000 0.247500
0.035990 1.000000 0.247500
0.047562 1.000000 0.247500
0.062351 1.000000 0.247500
0.080337 1.000000 0.247500
0.108673 1.000000 0.247500
0.444581 1.000000 0.247500
1.000000 1.000000 0.247500
0.000000 0.000000 0.330000
0.555419 0.000000 0.330000
0.891326 0.000000 0.330000
0.919663 0.000000 0.330000
0.937649 0.000000 0.330000
0.952438 0.000000 0.330000
0.964010 0.000000 0.330000
0.971289 0.000000 0.330000
0.976069 0.000000 0.330000
0.980440 0.000000 0.330000
0.984113 0.000000 0.330000
0.992520 0.000000 0.330000
1.000000 0.000000 0.330000
0.000000 0.007480 0.330000
0.593626 0.016514 0.330000
0.865313 0.079137 0.330000
0.870458 0.211981 0.330000
0.897442 0.286178 0.330000
0.905531 0.383608 0.330000
0.913120 0.469283 0.330000
0.921031 0.545138 0.330000
0.929958 0.603359 0.330000
0.943184 0.640467 0.330000
0.959454 0.654176 0.330000
0.983486 0.593626 0.330000
1.000000 0.555419 0.330000
0.000000 0.015887 0.330000
0.654176 0.040546 0.330000
0.810355 0.154635 0.330000
0.842243 0.302687 0.330000
0.845639 0.472681 0.330000
0.845960 0.563506 0.330000
0.835906 0.639139 0.330000
0.812136 0.684273 0.330000
0.799328 0.718873 0.330000
0.809332 0.756788 0.330000
0.845365 0.810355 0.330000
0.920863 0.865313 0.330000
1.000000 0.891327 0.330000
0.000000 0.019560 0.330000
0.640467 0.056816 0.330000
0.756788 0.190668 0.330000
0.817953 0.360680 0.330000
0.760189 0.499056 0.330000
0.754467 0.581629 0.330000
0.703669 0.650614 0.330000
0.652578 0.714451 0.330000
0.633187 0.773288 0.330000
0.639320 0.817953 0.330000
0.697313 0.842243 0.330000
0.788019 0.870458 0.330000
1.000000 0.919663 0.330000
0.000000 0.023931 0.330000
0.603359 0.070042 0.330000
0.718873 0.200672 0.330000
0.773288 0.366813 0.330000
0.701333 0.487372 0.330000
0.661089 0.584905 0.330000
0.588130 0.627903 0.330000
0.548065 0.669892 0.330000
0.512628 0.701333 0.330000
0.500944 0.760189 0.330000
0.527319 0.845639 0.330000