# vtk DataFile Version 2.0
Mesh for Fierro
ASCII 
DATASET UNSTRUCTURED_GRID

POINTS 27 float
0.000000 0.000000 0.000000
0.500000 0.000000 0.000000
1.000000 0.000000 0.000000
0.000000 0.500000 0.000000
0.500000 0.500000 0.000000
1.000000 0.500000 0.000000
0.000000 1.000000 0.000000
0.500000 1.000000 0.000000
1.000000 1.000000 0.000000
0.000000 0.000000 0.500000
0.500000 0.000000 0.500000
1.000000 0.000000 0.500000
0.000000 0.500000 0.500000
0.500000 0.500000 0.500000
1.000000 0.500000 0.500000
0.000000 1.000000 0.500000
0.500000 1.000000 0.500000
1.000000 1.000000 0.500000
0.000000 0.000000 1.000000
0.500000 0.000000 1.000000
1.000000 0.000000 1.000000
0.000000 0.500000 1.000000
0.500000 0.500000 1.000000
1.000000 0.500000 1.000000
0.000000 1.000000 1.000000
0.500000 1.000000 1.000000
1.000000 1.000000 1.000000

CELLS 1 28
27 0 2 8 6 18 20 26 24 1 5 7 3 19 23 25 21 9 11 15 17 12 14 10 16 4 22 13 

CELL_TYPES 1 
72 

POINT_DATA 27 
VECTORS pos float 
0.000000 0.000000 0.000000
0.500000 0.000000 0.000000
1.000000 0.000000 0.000000
0.000000 0.500000 0.000000
0.500000 0.500000 0.000000
1.000000 0.500000 0.000000
0.000000 1.000000 0.000000
0.500000 1.000000 0.000000
1.000000 1.000000 0.000000
0.000000 0.000000 0.500000
0.500000 0.000000 0.500000
1.000000 0.000000 0.500000
0.000000 0.500000 0.500000
0.500000 0.500000 0.500000
1.000000 0.500000 0.500000
0.000000 1.000000 0.500000
0.500000 1.000000 0.500000
1.000000 1.000000 0.500000
0.000000 0.000000 1.000000
0.500000 0.000000 1.000000
1.000000 0.000000 1.000000
0.000000 0.500000 1.000000
0.500000 0.500000 1.000000
1.000000 0.500000 1.000000
0.000000 1.000000 1.000000
0.500000 1.000000 1.000000
1.000000 1.000000 1.000000
VECTORS vel float 
0.000000 0.000000 0.000000
0.000000 0.000000 0.000000
0.000000 0.000000 0.000000
0.000000 0.000000 0.000000
0.000000 0.000000 0.000000
0.000000 0.000000 0.000000
0.000000 0.000000 0.000000
0.000000 0.000000 0.000000
0.000000 0.000000 0.000000
0.000000 0.000000 0.000000
0.000000 0.000000 0.000000
0.000000 0.000000 0.000000
0.000000 0.000000 0.000000
0.000000 0.000000 0.000000
0.000000 0.000000 0.000000
0.000000 0.000000 0.000000
0.000000 0.000000 0.000000
0.000000 0.000000 0.000000
0.000000 0.000000 0.000000
0.000000 0.000000 0.000000
0.000000 0.000000 0.000000
0.000000 0.000000 0.000000
0.000000 0.000000 0.000000
0.000000 0.000000 0.000000
0.000000 0.000000 0.000000
0.000000 0.000000 0.000000
0.000000 0.000000 0.000000

CELL_DATA 1 
SCALARS den float 1
LOOKUP_TABLE default
1.000000
SCALARS pres float 1
LOOKUP_TABLE default
0.000000
SCALARS sie float 1
LOOKUP_TABLE default
0.000000
SCALARS vol float 1
LOOKUP_TABLE default
1.000000
SCALARS mass float 1
LOOKUP_TABLE default
1.000000
SCALARS sspd float 1
LOOKUP_TABLE default
0.000011
SCALARS speed float 1
LOOKUP_TABLE default
0.000000
SCALARS mat_id float 1
LOOKUP_TABLE default
0.000000
SCALARS elem_switch float 1
LOOKUP_TABLE default
1.000000
