# vtk DataFile Version 2.0
Mesh for Fierro
ASCII
DATASET UNSTRUCTURED_GRID

POINTS 404 float
0.00000000                0.00000000                0.00000000                
0.01000000                0.00000000                0.00000000                
0.02000000                0.00000000                0.00000000                
0.03000000                0.00000000                0.00000000                
0.04000000                0.00000000                0.00000000                
0.05000000                0.00000000                0.00000000                
0.06000000                0.00000000                0.00000000                
0.07000000                0.00000000                0.00000000                
0.08000000                0.00000000                0.00000000                
0.09000000                0.00000000                0.00000000                
0.10000000                0.00000000                0.00000000                
0.11000000                0.00000000                0.00000000                
0.12000000                0.00000000                0.00000000                
0.13000000                0.00000000                0.00000000                
0.14000000                0.00000000                0.00000000                
0.15000000                0.00000000                0.00000000                
0.16000000                0.00000000                0.00000000                
0.17000000                0.00000000                0.00000000                
0.18000000                0.00000000                0.00000000                
0.19000000                0.00000000                0.00000000                
0.20000000                0.00000000                0.00000000                
0.21000000                0.00000000                0.00000000                
0.22000000                0.00000000                0.00000000                
0.23000000                0.00000000                0.00000000                
0.24000001                0.00000000                0.00000000                
0.25000005                0.00000000                0.00000000                
0.26000027                0.00000000                0.00000000                
0.27000144                0.00000000                0.00000000                
0.28000676                0.00000000                0.00000000                
0.29002751                0.00000000                0.00000000                
0.30009523                0.00000000                0.00000000                
0.31027599                0.00000000                0.00000000                
0.32066747                0.00000000                0.00000000                
0.33137164                0.00000000                0.00000000                
0.34247463                0.00000000                0.00000000                
0.35405245                0.00000000                0.00000000                
0.36618424                0.00000000                0.00000000                
0.37895890                0.00000000                0.00000000                
0.39247477                0.00000000                0.00000000                
0.40683714                0.00000000                0.00000000                
0.42216514                0.00000000                0.00000000                
0.43859162                0.00000000                0.00000000                
0.45626084                0.00000000                0.00000000                
0.47531271                0.00000000                0.00000000                
0.49584889                0.00000000                0.00000000                
0.51787904                0.00000000                0.00000000                
0.54121082                0.00000000                0.00000000                
0.56517680                0.00000000                0.00000000                
0.58893589                0.00000000                0.00000000                
0.61283251                0.00000000                0.00000000                
0.63758702                0.00000000                0.00000000                
0.64245689                0.00000000                0.00000000                
0.64726205                0.00000000                0.00000000                
0.65204248                0.00000000                0.00000000                
0.65680698                0.00000000                0.00000000                
0.66156392                0.00000000                0.00000000                
0.66631047                0.00000000                0.00000000                
0.67105412                0.00000000                0.00000000                
0.67578830                0.00000000                0.00000000                
0.68052117                0.00000000                0.00000000                
0.68524569                0.00000000                0.00000000                
0.68996916                0.00000000                0.00000000                
0.69468735                0.00000000                0.00000000                
0.69940453                0.00000000                0.00000000                
0.70412046                0.00000000                0.00000000                
0.70883421                0.00000000                0.00000000                
0.71355099                0.00000000                0.00000000                
0.71826390                0.00000000                0.00000000                
0.72298514                0.00000000                0.00000000                
0.72769993                0.00000000                0.00000000                
0.73243002                0.00000000                0.00000000                
0.73714418                0.00000000                0.00000000                
0.74187643                0.00000000                0.00000000                
0.74657571                0.00000000                0.00000000                
0.75139223                0.00000000                0.00000000                
0.75669887                0.00000000                0.00000000                
0.76322633                0.00000000                0.00000000                
0.77127960                0.00000000                0.00000000                
0.78042070                0.00000000                0.00000000                
0.79009551                0.00000000                0.00000000                
0.80000885                0.00000000                0.00000000                
0.81000030                0.00000000                0.00000000                
0.82000001                0.00000000                0.00000000                
0.83000000                0.00000000                0.00000000                
0.84000000                0.00000000                0.00000000                
0.85000000                0.00000000                0.00000000                
0.86000000                0.00000000                0.00000000                
0.87000000                0.00000000                0.00000000                
0.88000000                0.00000000                0.00000000                
0.89000000                0.00000000                0.00000000                
0.90000000                0.00000000                0.00000000                
0.91000000                0.00000000                0.00000000                
0.92000000                0.00000000                0.00000000                
0.93000000                0.00000000                0.00000000                
0.94000000                0.00000000                0.00000000                
0.95000000                0.00000000                0.00000000                
0.96000000                0.00000000                0.00000000                
0.97000000                0.00000000                0.00000000                
0.98000000                0.00000000                0.00000000                
0.99000000                0.00000000                0.00000000                
1.00000000                0.00000000                0.00000000                
0.00000000                0.01000000                0.00000000                
0.01000000                0.01000000                0.00000000                
0.02000000                0.01000000                0.00000000                
0.03000000                0.01000000                0.00000000                
0.04000000                0.01000000                0.00000000                
0.05000000                0.01000000                0.00000000                
0.06000000                0.01000000                0.00000000                
0.07000000                0.01000000                0.00000000                
0.08000000                0.01000000                0.00000000                
0.09000000                0.01000000                0.00000000                
0.10000000                0.01000000                0.00000000                
0.11000000                0.01000000                0.00000000                
0.12000000                0.01000000                0.00000000                
0.13000000                0.01000000                0.00000000                
0.14000000                0.01000000                0.00000000                
0.15000000                0.01000000                0.00000000                
0.16000000                0.01000000                0.00000000                
0.17000000                0.01000000                0.00000000                
0.18000000                0.01000000                0.00000000                
0.19000000                0.01000000                0.00000000                
0.20000000                0.01000000                0.00000000                
0.21000000                0.01000000                0.00000000                
0.22000000                0.01000000                0.00000000                
0.23000000                0.01000000                0.00000000                
[...]
POINT_DATA 404
VECTORS velocity float
0.00000000                0.00000000                0.00000000                
0.00000000                0.00000000                0.00000000                
0.00000000                0.00000000                0.00000000                
0.00000000                0.00000000                0.00000000                
0.00000000                0.00000000                0.00000000                
0.00000000                0.00000000                0.00000000                
0.00000000                0.00000000                0.00000000                
0.00000000                0.00000000                0.00000000                
0.00000000                0.00000000                0.00000000                
0.00000000                0.00000000                0.00000000                
0.00000000                0.00000000                0.00000000                
0.00000000                0.00000000                0.00000000                
0.00000000                0.00000000                0.00000000                
0.00000000                0.00000000                0.00000000                
0.00000000                0.00000000                0.00000000                
0.00000000                0.00000000                0.00000000                
0.00000000                0.00000000                0.00000000                
0.00000000                0.00000000                0.00000000                
0.00000000                0.00000000                0.00000000                
0.00000000                0.00000000                0.00000000                
0.00000000                0.00000000                0.00000000                
0.00000000                0.00000000                0.00000000                
0.00000003                0.00000000                0.00000000                
0.00000026                0.00000000                0.00000000                
0.00000178                0.00000000                0.00000000                
0.00001108                0.00000000                0.00000000                
0.00006140                0.00000000                0.00000000                
0.00029945                0.00000000                0.00000000                
0.00126555                0.00000000                0.00000000                
0.00453501                0.00000000                0.00000000                
0.01341464                0.00000000                0.00000000                
0.03205086                0.00000000                0.00000000                
0.06210750                0.00000000                0.00000000                
0.10148276                0.00000000                0.00000000                
0.14743547                0.00000000                0.00000000                
0.19873702                0.00000000                0.00000000                
0.25516527                0.00000000                0.00000000                
0.31654815                0.00000000                0.00000000                
0.38233123                0.00000000                0.00000000                
0.45162551                0.00000000                0.00000000                
0.52481558                0.00000000                0.00000000                
0.60122230                0.00000000                0.00000000                
0.67976065                0.00000000                0.00000000                
0.75785821                0.00000000                0.00000000                
0.83156423                0.00000000                0.00000000                
0.89495104                0.00000000                0.00000000                
0.93693517                0.00000000                0.00000000                
0.93790389                0.00000000                0.00000000                
0.92776223                0.00000000                0.00000000                
0.93235492                0.00000000                0.00000000                
0.92933179                0.00000000                0.00000000                
0.92924609                0.00000000                0.00000000                
0.92931975                0.00000000                0.00000000                
0.92968048                0.00000000                0.00000000                
0.92990795                0.00000000                0.00000000                
0.93064430                0.00000000                0.00000000                
0.93120321                0.00000000                0.00000000                
0.93186093                0.00000000                0.00000000                
0.93282617                0.00000000                0.00000000                
0.93281610                0.00000000                0.00000000                
0.93443027                0.00000000                0.00000000                
0.93321496                0.00000000                0.00000000                
0.93526111                0.00000000                0.00000000                
0.93286844                0.00000000                0.00000000                
0.93490250                0.00000000                0.00000000                
0.93187052                0.00000000                0.00000000                
0.93374554                0.00000000                0.00000000                
0.93019567                0.00000000                0.00000000                
0.93200154                0.00000000                0.00000000                
0.92737528                0.00000000                0.00000000                
0.93023965                0.00000000                0.00000000                
0.92562639                0.00000000                0.00000000                
0.93146437                0.00000000                0.00000000                
0.92731508                0.00000000                0.00000000                
0.88937128                0.00000000                0.00000000                
0.74254197                0.00000000                0.00000000                
0.47396016                0.00000000                0.00000000                
0.22919771                0.00000000                0.00000000                
0.09136482                0.00000000                0.00000000                
0.03121524                0.00000000                0.00000000                
0.00453713                0.00000000                0.00000000                
0.00018785                0.00000000                0.00000000                
0.00000473                0.00000000                0.00000000                
0.00000012                0.00000000                0.00000000                
0.00000000                0.00000000                0.00000000                
0.00000000                0.00000000                0.00000000                
0.00000000                0.00000000                0.00000000                
0.00000000                0.00000000                0.00000000                
0.00000000                0.00000000                0.00000000                
0.00000000                0.00000000                0.00000000                
0.00000000                0.00000000                0.00000000                
0.00000000                0.00000000                0.00000000                
0.00000000                0.00000000                0.00000000                
0.00000000                0.00000000                0.00000000                
0.00000000                0.00000000                0.00000000                
0.00000000                0.00000000                0.00000000                
0.00000000                0.00000000                0.00000000                
0.00000000                0.00000000                0.00000000                
0.00000000                0.00000000                0.00000000                
0.00000000                0.00000000                0.00000000                
0.00000000                0.00000000                0.00000000                
0.00000000                0.00000000                0.00000000                
0.00000000                0.00000000                0.00000000                
0.00000000                0.00000000                0.00000000                
0.00000000                0.00000000                0.00000000                
0.00000000                0.00000000                0.00000000                
0.00000000                0.00000000                0.00000000                
0.00000000                0.00000000                0.00000000                
0.00000000                0.00000000                0.00000000                
0.00000000                0.00000000                0.00000000                
0.00000000                0.00000000                0.00000000                
0.00000000                0.00000000                0.00000000                
0.00000000                0.00000000                0.00000000                
0.00000000                0.00000000                0.00000000                
0.00000000                0.00000000                0.00000000                
0.00000000                0.00000000                0.00000000                
0.00000000                0.00000000                0.00000000                
0.00000000                0.00000000                0.00000000                
0.00000000                0.00000000                0.00000000                
0.00000000                0.00000000                0.00000000                
0.00000000                0.00000000                0.00000000                
0.00000000                0.00000000                0.00000000                
0.00000000                0.00000000                0.00000000                
0.00000003                0.00000000                0.00000000                
0.00000026                0.00000000                0.00000000                
0.00000178                0.00000000                0.00000000                
0.00001108                0.00000000                0.00000000                
0.00006140                0.00000000                0.00000000                
0.00029945                0.00000000                0.00000000                
0.00126555                0.00000000                0.00000000                
0.00453501                0.00000000                0.00000000                
0.01341464                0.00000000                0.00000000                
0.03205086                0.00000000                0.00000000                
0.06210750                0.00000000                0.00000000                
0.10148276                0.00000000                0.00000000                
0.14743547                0.00000000                0.00000000                
0.19873702                0.00000000                0.00000000                
0.25516527                0.00000000                0.00000000                
0.31654815                0.00000000                0.00000000                
0.38233123                0.00000000                0.00000000                
0.45162551                0.00000000                0.00000000                
0.52481558                0.00000000                0.00000000                
0.60122230                0.00000000                0.00000000                
0.67976065                0.00000000                0.00000000                
0.75785821                0.00000000                0.00000000                
0.83156423                0.00000000                0.00000000                
0.89495104                0.00000000                0.00000000                
0.93693517                0.00000000                0.00000000                
0.93790389                0.00000000                0.00000000                
0.92776223                0.00000000                0.00000000                
0.93235492                0.00000000                0.00000000                
0.92933179                0.00000000                0.00000000                
0.92924609                0.00000000                0.00000000                
0.92931975                0.00000000                0.00000000                
0.92968048                0.00000000                0.00000000                
0.92990795                0.00000000                0.00000000                
0.93064430                0.00000000                0.00000000                
0.93120321                0.00000000                0.00000000                
0.93186093                0.00000000                0.00000000                
0.93282617                0.00000000                0.00000000                
0.93281610                0.00000000                0.00000000                
0.93443027                0.00000000                0.00000000                
0.93321496                0.00000000                0.00000000                
0.93526111                0.00000000                0.00000000                
0.93286844                0.00000000                0.00000000                
0.93490250                0.00000000                0.00000000                
0.93187052                0.00000000                0.00000000                
0.93374554                0.00000000                0.00000000                
0.93019567                0.00000000                0.00000000                
0.93200154                0.00000000                0.00000000                
0.92737528                0.00000000                0.00000000                
0.93023965                0.00000000                0.00000000                
0.92562639                0.00000000                0.00000000                
0.93146437                0.00000000                0.00000000                
0.92731508                0.00000000                0.00000000                
0.88937128                0.00000000                0.00000000                
0.74254197                0.00000000                0.00000000                
0.47396016                0.00000000                0.00000000                
0.22919771                0.00000000                0.00000000                
0.09136482                0.00000000                0.00000000                
0.03121524                0.00000000                0.00000000                
0.00453713                0.00000000                0.00000000                
0.00018785                0.00000000                0.00000000                
0.00000473                0.00000000                0.00000000                
0.00000012                0.00000000                0.00000000                
0.00000000                0.00000000                0.00000000                
0.00000000                0.00000000                0.00000000                
0.00000000                0.00000000                0.00000000                
0.00000000                0.00000000                0.00000000                
0.00000000                0.00000000                0.00000000                
0.00000000                0.00000000                0.00000000                
0.00000000                0.00000000                0.00000000                
0.00000000                0.00000000                0.00000000                
0.00000000                0.00000000                0.00000000                
0.00000000                0.00000000                0.00000000                
0.00000000                0.00000000                0.00000000                
0.00000000                0.00000000                0.00000000                
0.00000000                0.00000000                0.00000000                
0.00000000                0.00000000                0.00000000                
0.00000000                0.00000000                0.00000000                
0.00000000                0.00000000                0.00000000                
0.00000000                0.00000000                0.00000000                
0.00000000                0.00000000                0.00000000                
0.00000000                0.00000000                0.00000000                
0.00000000                0.00000000                0.00000000                
0.00000000                0.00000000                0.00000000                
0.00000000                0.00000000                0.00000000                
0.00000000                0.00000000                0.00000000                
0.00000000                0.00000000                0.00000000                
0.00000000                0.00000000                0.00000000                
0.00000000                0.00000000                0.00000000                
0.00000000                0.00000000                0.00000000                
0.00000000                0.00000000                0.00000000                
0.00000000                0.00000000                0.00000000                
0.00000000                0.00000000                0.00000000                
0.00000000                0.00000000                0.00000000                
0.00000000                0.00000000                0.00000000                
0.00000000                0.00000000                0.00000000                
0.00000000                0.00000000                0.00000000                
0.00000000                0.00000000                0.00000000                
0.00000000                0.00000000                0.00000000                
0.00000000                0.00000000                0.00000000                
0.00000000                0.00000000                0.00000000                
0.00000000                0.00000000                0.00000000                
0.00000003                0.00000000                0.00000000                
0.00000026                0.00000000                0.00000000                
0.00000178                0.00000000                0.00000000                
0.00001108                0.00000000                0.00000000                
0.00006140                0.00000000                0.00000000                
0.00029945                0.00000000                0.00000000                
0.00126555                0.00000000                0.00000000                
0.00453501                0.00000000                0.00000000                
0.01341464                0.00000000                0.00000000                
0.03205086                0.00000000                0.00000000                
0.06210750                0.00000000                0.00000000                
0.10148276                0.00000000                0.00000000                
0.14743547                0.00000000                0.00000000                
0.19873702                0.00000000                0.00000000                
0.25516527                0.00000000                0.00000000                
0.31654815                0.00000000                0.00000000                
0.38233123                0.00000000                0.00000000                
0.45162551                0.00000000                0.00000000                
0.52481558                0.00000000                0.00000000                
0.60122230                0.00000000                0.00000000                
0.67976065                0.00000000                0.00000000                
0.75785821                0.00000000                0.00000000                
0.83156423                0.00000000                0.00000000                
0.89495104                0.00000000                0.00000000                
0.93693517                0.00000000                0.00000000                
0.93790389                0.00000000                0.00000000                
0.92776223                0.00000000                0.00000000                
0.93235492                0.00000000                0.00000000                