# vtk DataFile Version 2.0
Mesh for Fierro
ASCII 
DATASET UNSTRUCTURED_GRID

POINTS 2205 float
0.000000 0.000000 0.000000
0.467185 0.000000 0.000000
0.697881 0.000000 0.000000
0.782174 0.000000 0.000000
0.836840 0.000000 0.000000
0.867719 0.000000 0.000000
0.891515 0.000000 0.000000
0.909790 0.000000 0.000000
0.923657 0.000000 0.000000
0.934648 0.000000 0.000000
0.944101 0.000000 0.000000
0.952334 0.000000 0.000000
0.959129 0.000000 0.000000
0.964934 0.000000 0.000000
0.970228 0.000000 0.000000
0.975271 0.000000 0.000000
0.980126 0.000000 0.000000
0.984989 0.000000 0.000000
0.989911 0.000000 0.000000
0.994894 0.000000 0.000000
1.000000 0.000000 0.000000
0.000000 0.005106 0.000000
0.464607 0.007191 0.000000
0.693323 0.020248 0.000000
0.779338 0.035370 0.000000
0.834136 0.066365 0.000000
0.864887 0.094294 0.000000
0.888538 0.123285 0.000000
0.904798 0.160388 0.000000
0.917186 0.199661 0.000000
0.926849 0.237023 0.000000
0.935034 0.272429 0.000000
0.942260 0.307127 0.000000
0.948429 0.341494 0.000000
0.954335 0.371089 0.000000
0.960137 0.396129 0.000000
0.966181 0.417650 0.000000
0.972459 0.433977 0.000000
0.979042 0.447118 0.000000
0.985784 0.457484 0.000000
0.992809 0.464607 0.000000
1.000000 0.467185 0.000000
0.000000 0.010089 0.000000
0.457484 0.014216 0.000000
0.684623 0.039042 0.000000
0.773617 0.067989 0.000000
0.823245 0.123277 0.000000
0.855363 0.172812 0.000000
0.877025 0.232410 0.000000
0.889556 0.295907 0.000000
0.896564 0.358847 0.000000
0.901218 0.413105 0.000000
0.904188 0.462649 0.000000
0.905758 0.507773 0.000000
0.906302 0.548552 0.000000
0.908486 0.582801 0.000000
0.912997 0.611313 0.000000
0.920233 0.635847 0.000000
0.930778 0.655425 0.000000
0.944706 0.671639 0.000000
0.960958 0.684623 0.000000
0.979752 0.693323 0.000000
1.000000 0.697881 0.000000
0.000000 0.015011 0.000000
0.447118 0.020958 0.000000
0.671639 0.055294 0.000000
0.761863 0.096285 0.000000
0.806414 0.169020 0.000000
0.838747 0.230684 0.000000
0.853150 0.306727 0.000000
0.858475 0.378105 0.000000
0.856163 0.447578 0.000000
0.854026 0.503304 0.000000
0.848924 0.555291 0.000000
0.843857 0.600829 0.000000
0.839475 0.642029 0.000000
0.840688 0.676916 0.000000
0.847181 0.706150 0.000000
0.859822 0.730098 0.000000
0.878155 0.748614 0.000000
0.903715 0.761863 0.000000
0.932011 0.773617 0.000000
0.964630 0.779338 0.000000
1.000000 0.782174 0.000000
0.000000 0.019874 0.000000
0.433977 0.027541 0.000000
0.655425 0.069222 0.000000
0.748614 0.121845 0.000000
0.787083 0.206526 0.000000
0.818134 0.278550 0.000000
0.821830 0.366433 0.000000
0.820123 0.438610 0.000000
0.807328 0.508829 0.000000
0.797709 0.563354 0.000000
0.783569 0.612286 0.000000
0.771924 0.652445 0.000000
0.761245 0.686127 0.000000
0.758159 0.714867 0.000000
0.761252 0.740655 0.000000
0.773070 0.764684 0.000000
0.793474 0.787083 0.000000
0.830980 0.806414 0.000000
0.876723 0.823245 0.000000
0.933635 0.834136 0.000000
1.000000 0.836840 0.000000
0.000000 0.024729 0.000000
0.417650 0.033819 0.000000
0.635847 0.079767 0.000000
0.730098 0.140178 0.000000
0.764684 0.226930 0.000000
0.793150 0.305620 0.000000
0.788812 0.389503 0.000000
0.781364 0.460793 0.000000
0.761800 0.524971 0.000000
0.744909 0.577206 0.000000
0.723549 0.622953 0.000000
0.702674 0.662992 0.000000
0.683559 0.699096 0.000000
0.675736 0.733470 0.000000
0.678528 0.764767 0.000000
0.694380 0.793150 0.000000
0.721450 0.818134 0.000000
0.769316 0.838747 0.000000
0.827188 0.855363 0.000000
0.905706 0.864887 0.000000
1.000000 0.867719 0.000000
0.000000 0.029772 0.000000
0.396129 0.039863 0.000000
0.611313 0.087003 0.000000
0.706150 0.152819 0.000000
0.740655 0.238748 0.000000
0.764767 0.321472 0.000000
0.754413 0.399964 0.000000
0.741489 0.469637 0.000000
0.715421 0.528610 0.000000
0.692825 0.577810 0.000000
0.664948 0.619514 0.000000
0.639662 0.655793 0.000000
0.616524 0.688049 0.000000
0.603827 0.721384 0.000000
0.600036 0.754413 0.000000
0.610497 0.788812 0.000000
0.633567 0.821830 0.000000
0.693273 0.853150 0.000000
0.767590 0.877025 0.000000
0.876715 0.888538 0.000000
1.000000 0.891515 0.000000
0.000000 0.035066 0.000000
0.371089 0.045665 0.000000
0.582801 0.091514 0.000000
0.676916 0.159312 0.000000
0.714867 0.241841 0.000000
0.733470 0.324264 0.000000
0.721384 0.396173 0.000000
0.703621 0.462925 0.000000
0.674105 0.516273 0.000000
0.646546 0.562240 0.000000
0.614145 0.599885 0.000000
0.583133 0.634201 0.000000
0.554265 0.666525 0.000000
0.537075 0.703621 0.000000
0.530363 0.741489 0.000000
0.539207 0.781364 0.000000
0.561390 0.820123 0.000000
0.621895 0.858475 0.000000
0.704093 0.889556 0.000000
0.839612 0.904798 0.000000
1.000000 0.909790 0.000000
0.000000 0.040871 0.000000
0.341494 0.051571 0.000000
0.548552 0.093698 0.000000
0.642029 0.160525 0.000000
0.686127 0.238755 0.000000
0.699096 0.316441 0.000000
0.688049 0.383476 0.000000
0.666525 0.445735 0.000000
0.634779 0.495579 0.000000
0.603136 0.537921 0.000000
0.567490 0.571618 0.000000
0.535001 0.603744 0.000000
0.504421 0.634779 0.000000
0.483727 0.674105 0.000000
0.471390 0.715421 0.000000
0.475029 0.761800 0.000000
0.491171 0.807328 0.000000
0.552422 0.856163 0.000000
0.641153 0.896564 0.000000
0.800339 0.917186 0.000000
1.000000 0.923657 0.000000
0.000000 0.047666 0.000000
0.307127 0.057740 0.000000
0.507773 0.094242 0.000000
0.600829 0.156143 0.000000
0.652445 0.228076 0.000000
0.662992 0.297326 0.000000
0.655793 0.360338 0.000000
0.634201 0.416867 0.000000
0.603744 0.464999 0.000000
0.569530 0.504375 0.000000
0.531973 0.537052 0.000000
0.495625 0.569530 0.000000
0.462079 0.603136 0.000000
0.437760 0.646546 0.000000
0.422190 0.692825 0.000000
0.422794 0.744909 0.000000
0.436646 0.797709 0.000000
0.496696 0.854026 0.000000
0.586895 0.901218 0.000000
0.762977 0.926849 0.000000
1.000000 0.934648 0.000000
0.000000 0.055899 0.000000
0.272429 0.064966 0.000000
0.462649 0.095812 0.000000
0.555291 0.151076 0.000000
0.612286 0.216431 0.000000
0.622953 0.276451 0.000000
0.619514 0.335052 0.000000
0.599885 0.385855 0.000000
0.571618 0.432510 0.000000
0.537052 0.468027 0.000000
0.500000 0.500000 0.000000
0.462948 0.531973 0.000000
0.428382 0.567490 0.000000
0.400115 0.614145 0.000000
0.380486 0.664948 0.000000
0.377047 0.723549 0.000000
0.387714 0.783569 0.000000
0.444709 0.848924 0.000000
0.537351 0.904188 0.000000
0.727571 0.935034 0.000000
1.000000 0.944101 0.000000
0.000000 0.065352 0.000000
0.237023 0.073151 0.000000
0.413105 0.098782 0.000000
0.503304 0.145974 0.000000
0.563354 0.202291 0.000000
0.577206 0.255091 0.000000
0.577810 0.307175 0.000000
0.562240 0.353454 0.000000
0.537921 0.396864 0.000000
0.504375 0.430470 0.000000
0.468027 0.462948 0.000000
0.430470 0.495625 0.000000
0.396256 0.535001 0.000000
0.365799 0.583133 0.000000
0.344207 0.639662 0.000000
0.337008 0.702674 0.000000
0.347555 0.771924 0.000000
0.399171 0.843857 0.000000
0.492227 0.905758 0.000000
0.692873 0.942260 0.000000
1.000000 0.952334 0.000000
0.000000 0.076343 0.000000
0.199661 0.082814 0.000000
0.358847 0.103436 0.000000
0.447578 0.143837 0.000000
0.508829 0.192672 0.000000
0.524971 0.238200 0.000000
0.528610 0.284579 0.000000
0.516273 0.325895 0.000000
0.495579 0.365221 0.000000
0.464999 0.396256 0.000000
0.432510 0.428382 0.000000
0.396864 0.462079 0.000000
0.365221 0.504421 0.000000
0.333475 0.554265 0.000000
0.311951 0.616524 0.000000
0.300904 0.683559 0.000000
0.313873 0.761245 0.000000
0.357971 0.839475 0.000000
0.451448 0.906302 0.000000
0.658506 0.948429 0.000000
1.000000 0.959129 0.000000
0.000000 0.090210 0.000000
0.160388 0.095202 0.000000
0.295907 0.110444 0.000000
0.378105 0.141525 0.000000
0.438610 0.179877 0.000000
0.460793 0.218636 0.000000
0.469637 0.258511 0.000000
0.462925 0.296379 0.000000
0.445735 0.333475 0.000000
0.416867 0.365799 0.000000
0.385855 0.400115 0.000000
0.353454 0.437760 0.000000
0.325895 0.483727 0.000000
0.296379 0.537075 0.000000
0.278616 0.603827 0.000000
0.266530 0.675736 0.000000
0.285133 0.758159 0.000000
0.323084 0.840688 0.000000
0.417199 0.908486 0.000000
0.628911 0.954335 0.000000
1.000000 0.964934 0.000000
0.000000 0.108485 0.000000
0.123285 0.111462 0.000000
0.232410 0.122975 0.000000
0.306727 0.146850 0.000000
0.366433 0.178170 0.000000
0.389503 0.211188 0.000000
0.399964 0.245587 0.000000
0.396173 0.278616 0.000000
0.383476 0.311951 0.000000
0.360338 0.344207 0.000000
0.335052 0.380486 0.000000
0.307175 0.422190 0.000000
0.284579 0.471390 0.000000
0.258511 0.530363 0.000000
0.245587 0.600036 0.000000
0.235233 0.678528 0.000000
0.259345 0.761252 0.000000
0.293850 0.847181 0.000000
0.388687 0.912997 0.000000
0.603871 0.960137 0.000000
1.000000 0.970228 0.000000
0.000000 0.132281 0.000000
0.094294 0.135113 0.000000
0.172812 0.144637 0.000000
0.230684 0.161253 0.000000
0.278550 0.181866 0.000000
0.305620 0.206850 0.000000
0.321472 0.235233 0.000000
0.324264 0.266530 0.000000
0.316441 0.300904 0.000000
0.297326 0.337008 0.000000
0.276451 0.377047 0.000000
0.255091 0.422794 0.000000
0.238200 0.475029 0.000000
0.218636 0.539207 0.000000
0.211188 0.610497 0.000000
0.206850 0.694380 0.000000
0.235316 0.773070 0.000000
0.269902 0.859822 0.000000
0.364153 0.920233 0.000000
0.582350 0.966181 0.000000
1.000000 0.975271 0.000000
0.000000 0.163160 0.000000
0.066365 0.165864 0.000000
0.123277 0.176755 0.000000
0.169020 0.193586 0.000000
0.206526 0.212917 0.000000
0.226930 0.235316 0.000000
0.238748 0.259345 0.000000
0.241841 0.285133 0.000000
0.238755 0.313873 0.000000
0.228076 0.347555 0.000000
0.216431 0.387714 0.000000
0.202291 0.436646 0.000000
0.192672 0.491171 0.000000
0.179877 0.561390 0.000000
0.178170 0.633567 0.000000
0.181866 0.721450 0.000000
0.212917 0.793474 0.000000
0.251386 0.878155 0.000000
0.344575 0.930778 0.000000
0.566023 0.972459 0.000000
1.000000 0.980126 0.000000
0.000000 0.217826 0.000000
0.035370 0.220662 0.000000
0.067989 0.226383 0.000000
0.096285 0.238137 0.000000
0.121845 0.251386 0.000000
0.140178 0.269902 0.000000
0.152819 0.293850 0.000000
0.159312 0.323084 0.000000
0.160525 0.357971 0.000000
[...]
POINT_DATA 2205 
VECTORS pos float 
0.000000 0.000000 0.000000
0.467185 0.000000 0.000000
0.697881 0.000000 0.000000
0.782174 0.000000 0.000000
0.836840 0.000000 0.000000
0.867719 0.000000 0.000000
0.891515 0.000000 0.000000
0.909790 0.000000 0.000000
0.923657 0.000000 0.000000
0.934648 0.000000 0.000000
0.944101 0.000000 0.000000
0.952334 0.000000 0.000000
0.959129 0.000000 0.000000
0.964934 0.000000 0.000000
0.970228 0.000000 0.000000
0.975271 0.000000 0.000000
0.980126 0.000000 0.000000
0.984989 0.000000 0.000000
0.989911 0.000000 0.000000
0.994894 0.000000 0.000000
1.000000 0.000000 0.000000
0.000000 0.005106 0.000000
0.464607 0.007191 0.000000
0.693323 0.020248 0.000000
0.779338 0.035370 0.000000
0.834136 0.066365 0.000000
0.864887 0.094294 0.000000
0.888538 0.123285 0.000000
0.904798 0.160388 0.000000
0.917186 0.199661 0.000000
0.926849 0.237023 0.000000
0.935034 0.272429 0.000000
0.942260 0.307127 0.000000
0.948429 0.341494 0.000000
0.954335 0.371089 0.000000
0.960137 0.396129 0.000000
0.966181 0.417650 0.000000
0.972459 0.433977 0.000000
0.979042 0.447118 0.000000
0.985784 0.457484 0.000000
0.992809 0.464607 0.000000
1.000000 0.467185 0.000000
0.000000 0.010089 0.000000
0.457484 0.014216 0.000000
0.684623 0.039042 0.000000
0.773617 0.067989 0.000000
0.823245 0.123277 0.000000
0.855363 0.172812 0.000000
0.877025 0.232410 0.000000
0.889556 0.295907 0.000000
0.896564 0.358847 0.000000
0.901218 0.413105 0.000000
0.904188 0.462649 0.000000
0.905758 0.507773 0.000000
0.906302 0.548552 0.000000
0.908486 0.582801 0.000000
0.912997 0.611313 0.000000
0.920233 0.635847 0.000000
0.930778 0.655425 0.000000
0.944706 0.671639 0.000000
0.960958 0.684623 0.000000
0.979752 0.693323 0.000000
1.000000 0.697881 0.000000
0.000000 0.015011 0.000000
0.447118 0.020958 0.000000
0.671639 0.055294 0.000000
0.761863 0.096285 0.000000
0.806414 0.169020 0.000000
0.838747 0.230684 0.000000
0.853150 0.306727 0.000000
0.858475 0.378105 0.000000
0.856163 0.447578 0.000000
0.854026 0.503304 0.000000
0.848924 0.555291 0.000000
0.843857 0.600829 0.000000
0.839475 0.642029 0.000000
0.840688 0.676916 0.000000
0.847181 0.706150 0.000000
0.859822 0.730098 0.000000
0.878155 0.748614 0.000000
0.903715 0.761863 0.000000
0.932011 0.773617 0.000000
0.964630 0.779338 0.000000
1.000000 0.782174 0.000000
0.000000 0.019874 0.000000
0.433977 0.027541 0.000000
0.655425 0.069222 0.000000
0.748614 0.121845 0.000000
0.787083 0.206526 0.000000
0.818134 0.278550 0.000000
0.821830 0.366433 0.000000
0.820123 0.438610 0.000000
0.807328 0.508829 0.000000
0.797709 0.563354 0.000000
0.783569 0.612286 0.000000
0.771924 0.652445 0.000000
0.761245 0.686127 0.000000
0.758159 0.714867 0.000000
0.761252 0.740655 0.000000
0.773070 0.764684 0.000000
0.793474 0.787083 0.000000
0.830980 0.806414 0.000000
0.876723 0.823245 0.000000
0.933635 0.834136 0.000000
1.000000 0.836840 0.000000
0.000000 0.024729 0.000000
0.417650 0.033819 0.000000
0.635847 0.079767 0.000000
0.730098 0.140178 0.000000
0.764684 0.226930 0.000000
0.793150 0.305620 0.000000
0.788812 0.389503 0.000000
0.781364 0.460793 0.000000
0.761800 0.524971 0.000000
0.744909 0.577206 0.000000
0.723549 0.622953 0.000000
0.702674 0.662992 0.000000
0.683559 0.699096 0.000000
0.675736 0.733470 0.000000
0.678528 0.764767 0.000000
0.694380 0.793150 0.000000
0.721450 0.818134 0.000000
0.769316 0.838747 0.000000
0.827188 0.855363 0.000000
0.905706 0.864887 0.000000
1.000000 0.867719 0.000000
0.000000 0.029772 0.000000
0.396129 0.039863 0.000000
0.611313 0.087003 0.000000
0.706150 0.152819 0.000000
0.740655 0.238748 0.000000
0.764767 0.321472 0.000000
0.754413 0.399964 0.000000
0.741489 0.469637 0.000000
0.715421 0.528610 0.000000
0.692825 0.577810 0.000000
0.664948 0.619514 0.000000
0.639662 0.655793 0.000000
0.616524 0.688049 0.000000
0.603827 0.721384 0.000000
0.600036 0.754413 0.000000
0.610497 0.788812 0.000000
0.633567 0.821830 0.000000
0.693273 0.853150 0.000000
0.767590 0.877025 0.000000
0.876715 0.888538 0.000000
1.000000 0.891515 0.000000
0.000000 0.035066 0.000000
0.371089 0.045665 0.000000
0.582801 0.091514 0.000000
0.676916 0.159312 0.000000
0.714867 0.241841 0.000000
0.733470 0.324264 0.000000
0.721384 0.396173 0.000000
0.703621 0.462925 0.000000
0.674105 0.516273 0.000000
0.646546 0.562240 0.000000
0.614145 0.599885 0.000000
0.583133 0.634201 0.000000
0.554265 0.666525 0.000000
0.537075 0.703621 0.000000
0.530363 0.741489 0.000000
0.539207 0.781364 0.000000
0.561390 0.820123 0.000000
0.621895 0.858475 0.000000
0.704093 0.889556 0.000000
0.839612 0.904798 0.000000
1.000000 0.909790 0.000000
0.000000 0.040871 0.000000
0.341494 0.051571 0.000000
0.548552 0.093698 0.000000
0.642029 0.160525 0.000000
0.686127 0.238755 0.000000
0.699096 0.316441 0.000000
0.688049 0.383476 0.000000
0.666525 0.445735 0.000000
0.634779 0.495579 0.000000
0.603136 0.537921 0.000000
0.567490 0.571618 0.000000
0.535001 0.603744 0.000000
0.504421 0.634779 0.000000
0.483727 0.674105 0.000000
0.471390 0.715421 0.000000
0.475029 0.761800 0.000000
0.491171 0.807328 0.000000
0.552422 0.856163 0.000000
0.641153 0.896564 0.000000
0.800339 0.917186 0.000000
1.000000 0.923657 0.000000
0.000000 0.047666 0.000000
0.307127 0.057740 0.000000
0.507773 0.094242 0.000000
0.600829 0.156143 0.000000
0.652445 0.228076 0.000000
0.662992 0.297326 0.000000
0.655793 0.360338 0.000000
0.634201 0.416867 0.000000
0.603744 0.464999 0.000000
0.569530 0.504375 0.000000
0.531973 0.537052 0.000000
0.495625 0.569530 0.000000
0.462079 0.603136 0.000000
0.437760 0.646546 0.000000
0.422190 0.692825 0.000000
0.422794 0.744909 0.000000
0.436646 0.797709 0.000000
0.496696 0.854026 0.000000
0.586895 0.901218 0.000000
0.762977 0.926849 0.000000
1.000000 0.934648 0.000000
0.000000 0.055899 0.000000
0.272429 0.064966 0.000000
0.462649 0.095812 0.000000
0.555291 0.151076 0.000000
0.612286 0.216431 0.000000
0.622953 0.276451 0.000000
0.619514 0.335052 0.000000
0.599885 0.385855 0.000000
0.571618 0.432510 0.000000
0.537052 0.468027 0.000000
0.500000 0.500000 0.000000
0.462948 0.531973 0.000000
0.428382 0.567490 0.000000
0.400115 0.614145 0.000000
0.380486 0.664948 0.000000
0.377047 0.723549 0.000000
0.387714 0.783569 0.000000
0.444709 0.848924 0.000000
0.537351 0.904188 0.000000
0.727571 0.935034 0.000000
1.000000 0.944101 0.000000
0.000000 0.065352 0.000000
0.237023 0.073151 0.000000
0.413105 0.098782 0.000000
0.503304 0.145974 0.000000
0.563354 0.202291 0.000000
0.577206 0.255091 0.000000
0.577810 0.307175 0.000000
0.562240 0.353454 0.000000
0.537921 0.396864 0.000000
0.504375 0.430470 0.000000
0.468027 0.462948 0.000000
0.430470 0.495625 0.000000
0.396256 0.535001 0.000000
0.365799 0.583133 0.000000
0.344207 0.639662 0.000000
0.337008 0.702674 0.000000
0.347555 0.771924 0.000000
0.399171 0.843857 0.000000
0.492227 0.905758 0.000000
0.692873 0.942260 0.000000
1.000000 0.952334 0.000000
0.000000 0.076343 0.000000
0.199661 0.082814 0.000000
0.358847 0.103436 0.000000
0.447578 0.143837 0.000000
0.508829 0.192672 0.000000
0.524971 0.238200 0.000000
0.528610 0.284579 0.000000
0.516273 0.325895 0.000000
0.495579 0.365221 0.000000
0.464999 0.396256 0.000000
0.432510 0.428382 0.000000
0.396864 0.462079 0.000000
0.365221 0.504421 0.000000
0.333475 0.554265 0.000000
0.311951 0.616524 0.000000
0.300904 0.683559 0.000000
0.313873 0.761245 0.000000
0.357971 0.839475 0.000000
0.451448 0.906302 0.000000
0.658506 0.948429 0.000000
1.000000 0.959129 0.000000
0.000000 0.090210 0.000000
0.160388 0.095202 0.000000
0.295907 0.110444 0.000000
0.378105 0.141525 0.000000
0.438610 0.179877 0.000000
0.460793 0.218636 0.000000
0.469637 0.258511 0.000000
0.462925 0.296379 0.000000
0.445735 0.333475 0.000000
0.416867 0.365799 0.000000
0.385855 0.400115 0.000000
0.353454 0.437760 0.000000
0.325895 0.483727 0.000000
0.296379 0.537075 0.000000
0.278616 0.603827 0.000000
0.266530 0.675736 0.000000
0.285133 0.758159 0.000000
0.323084 0.840688 0.000000
0.417199 0.908486 0.000000
0.628911 0.954335 0.000000
1.000000 0.964934 0.000000
0.000000 0.108485 0.000000
0.123285 0.111462 0.000000
0.232410 0.122975 0.000000
0.306727 0.146850 0.000000
0.366433 0.178170 0.000000
0.389503 0.211188 0.000000
0.399964 0.245587 0.000000
0.396173 0.278616 0.000000
0.383476 0.311951 0.000000
0.360338 0.344207 0.000000
0.335052 0.380486 0.000000
0.307175 0.422190 0.000000
0.284579 0.471390 0.000000
0.258511 0.530363 0.000000
0.245587 0.600036 0.000000
0.235233 0.678528 0.000000
0.259345 0.761252 0.000000
0.293850 0.847181 0.000000
0.388687 0.912997 0.000000
0.603871 0.960137 0.000000
1.000000 0.970228 0.000000
0.000000 0.132281 0.000000
0.094294 0.135113 0.000000
0.172812 0.144637 0.000000
0.230684 0.161253 0.000000
0.278550 0.181866 0.000000
0.305620 0.206850 0.000000
0.321472 0.235233 0.000000
0.324264 0.266530 0.000000
0.316441 0.300904 0.000000
0.297326 0.337008 0.000000
0.276451 0.377047 0.000000
0.255091 0.422794 0.000000
0.238200 0.475029 0.000000
0.218636 0.539207 0.000000
0.211188 0.610497 0.000000
0.206850 0.694380 0.000000
0.235316 0.773070 0.000000
0.269902 0.859822 0.000000
0.364153 0.920233 0.000000
0.582350 0.966181 0.000000
1.000000 0.975271 0.000000
0.000000 0.163160 0.000000
0.066365 0.165864 0.000000
0.123277 0.176755 0.000000
0.169020 0.193586 0.000000
0.206526 0.212917 0.000000
0.226930 0.235316 0.000000
0.238748 0.259345 0.000000
0.241841 0.285133 0.000000
0.238755 0.313873 0.000000
0.228076 0.347555 0.000000
0.216431 0.387714 0.000000
0.202291 0.436646 0.000000
0.192672 0.491171 0.000000
0.179877 0.561390 0.000000
0.178170 0.633567 0.000000
0.181866 0.721450 0.000000
0.212917 0.793474 0.000000
0.251386 0.878155 0.000000
0.344575 0.930778 0.000000
0.566023 0.972459 0.000000
1.000000 0.980126 0.000000
0.000000 0.217826 0.000000
0.035370 0.220662 0.000000
0.067989 0.226383 0.000000
0.096285 0.238137 0.000000
0.121845 0.251386 0.000000
0.140178 0.269902 0.000000
0.152819 0.293850 0.000000
0.159312 0.323084 0.000000
0.160525 0.357971 0.000000
0.156143 0.399171 0.000000
0.151076 0.444709 0.000000
0.145974 0.496696 0.000000
0.143837 0.552422 0.000000
0.141525 0.621895 0.000000
0.146850 0.693273 0.000000
0.161253 0.769316 0.000000
0.193586 0.830980 0.000000
0.238137 0.903715 0.000000
0.328361 0.944706 0.000000
0.552882 0.979042 0.000000
1.000000 0.984989 0.000000
0.000000 0.302119 0.000000
0.020248 0.306677 0.000000
0.039042 0.315377 0.000000
0.055294 0.328361 0.000000
0.069222 0.344575 0.000000
0.079767 0.364153 0.000000
0.087003 0.388687 0.000000
0.091514 0.417199 0.000000
0.093698 0.451448 0.000000
0.094242 0.492227 0.000000
0.095812 0.537351 0.000000
0.098782 0.586895 0.000000
0.103436 0.641153 0.000000
0.110444 0.704093 0.000000
0.122975 0.767590 0.000000
0.144637 0.827188 0.000000
0.176755 0.876723 0.000000
0.226383 0.932011 0.000000
0.315377 0.960958 0.000000
0.542516 0.985784 0.000000
1.000000 0.989911 0.000000
0.000000 0.532815 0.000000
0.007191 0.535393 0.000000
0.014216 0.542516 0.000000
0.020958 0.552882 0.000000
0.027541 0.566023 0.000000
0.033819 0.582350 0.000000
0.039863 0.603871 0.000000
0.045665 0.628911 0.000000
0.051571 0.658506 0.000000
0.057740 0.692873 0.000000
0.064966 0.727571 0.000000
0.073151 0.762977 0.000000
0.082814 0.800339 0.000000
0.095202 0.839612 0.000000
0.111462 0.876715 0.000000
0.135113 0.905706 0.000000
0.165864 0.933635 0.000000
0.220662 0.964630 0.000000
0.306677 0.979752 0.000000
0.535393 0.992809 0.000000
1.000000 0.994894 0.000000
0.000000 1.000000 0.000000
0.005106 1.000000 0.000000
0.010089 1.000000 0.000000
0.015011 1.000000 0.000000
0.019874 1.000000 0.000000
0.024729 1.000000 0.000000
0.029772 1.000000 0.000000
0.035066 1.000000 0.000000
0.040871 1.000000 0.000000
0.047666 1.000000 0.000000
0.055899 1.000000 0.000000
0.065352 1.000000 0.000000
0.076343 1.000000 0.000000
0.090210 1.000000 0.000000
0.108485 1.000000 0.000000
0.132281 1.000000 0.000000
0.163160 1.000000 0.000000
0.217826 1.000000 0.000000
0.302119 1.000000 0.000000
0.532815 1.000000 0.000000
1.000000 1.000000 0.000000
0.000000 0.000000 0.082500
0.467185 0.000000 0.082500
0.697881 0.000000 0.082500
0.782174 0.000000 0.082500
0.836840 0.000000 0.082500
0.867719 0.000000 0.082500
0.891515 0.000000 0.082500
0.909790 0.000000 0.082500
0.923657 0.000000 0.082500
0.934648 0.000000 0.082500
0.944101 0.000000 0.082500
0.952334 0.000000 0.082500
0.959129 0.000000 0.082500
0.964934 0.000000 0.082500
0.970228 0.000000 0.082500
0.975271 0.000000 0.082500
0.980126 0.000000 0.082500
0.984989 0.000000 0.082500
0.989911 0.000000 0.082500
0.994894 0.000000 0.082500
1.000000 0.000000 0.082500
0.000000 0.005106 0.082500
0.464607 0.007191 0.082500
0.693323 0.020248 0.082500
0.779338 0.035370 0.082500
0.834136 0.066365 0.082500
0.864887 0.094294 0.082500
0.888538 0.123285 0.082500
0.904798 0.160388 0.082500
0.917186 0.199661 0.082500
0.926849 0.237023 0.082500
0.935034 0.272429 0.082500
0.942260 0.307127 0.082500
0.948429 0.341494 0.082500
0.954335 0.371089 0.082500
0.960137 0.396129 0.082500
0.966181 0.417650 0.082500
0.972459 0.433977 0.082500
0.979042 0.447118 0.082500
0.985784 0.457484 0.082500
0.992809 0.464607 0.082500
1.000000 0.467185 0.082500
0.000000 0.010089 0.082500
0.457484 0.014216 0.082500
0.684623 0.039042 0.082500
0.773617 0.067989 0.082500
0.823245 0.123277 0.082500
0.855363 0.172812 0.082500
0.877025 0.232410 0.082500
0.889556 0.295907 0.082500
0.896564 0.358847 0.082500
0.901218 0.413105 0.082500
0.904188 0.462649 0.082500
0.905758 0.507773 0.082500
0.906302 0.548552 0.082500
0.908486 0.582801 0.082500
0.912997 0.611313 0.082500
0.920233 0.635847 0.082500
0.930778 0.655425 0.082500
0.944706 0.671639 0.082500
0.960958 0.684623 0.082500
0.979752 0.693323 0.082500
1.000000 0.697881 0.082500
0.000000 0.015011 0.082500
0.447118 0.020958 0.082500
0.671639 0.055294 0.082500
0.761863 0.096285 0.082500
0.806414 0.169020 0.082500
0.838747 0.230684 0.082500
0.853150 0.306727 0.082500
0.858475 0.378105 0.082500
0.856163 0.447578 0.082500
0.854026 0.503304 0.082500
0.848924 0.555291 0.082500
0.843857 0.600829 0.082500
0.839475 0.642029 0.082500
0.840688 0.676916 0.082500
0.847181 0.706150 0.082500
0.859822 0.730098 0.082500
0.878155 0.748614 0.082500
0.903715 0.761863 0.082500
0.932011 0.773617 0.082500
0.964630 0.779338 0.082500
1.000000 0.782174 0.082500
0.000000 0.019874 0.082500
0.433977 0.027541 0.082500
0.655425 0.069222 0.082500
0.748614 0.121845 0.082500
0.787083 0.206526 0.082500
0.818134 0.278550 0.082500
0.821830 0.366433 0.082500
0.820123 0.438610 0.082500
0.807328 0.508829 0.082500
0.797709 0.563354 0.082500
0.783569 0.612286 0.082500
0.771924 0.652445 0.082500
0.761245 0.686127 0.082500
0.758159 0.714867 0.082500
0.761252 0.740655 0.082500
0.773070 0.764684 0.082500
0.793474 0.787083 0.082500
0.830980 0.806414 0.082500
0.876723 0.823245 0.082500
0.933635 0.834136 0.082500
1.000000 0.836840 0.082500
0.000000 0.024729 0.082500
0.417650 0.033819 0.082500
0.635847 0.079767 0.082500
0.730098 0.140178 0.082500
0.764684 0.226930 0.082500
0.793150 0.305620 0.082500
0.788812 0.389503 0.082500
0.781364 0.460793 0.082500
0.761800 0.524971 0.082500
0.744909 0.577206 0.082500
0.723549 0.622953 0.082500
0.702674 0.662992 0.082500
0.683559 0.699096 0.082500
0.675736 0.733470 0.082500
0.678528 0.764767 0.082500
0.694380 0.793150 0.082500
0.721450 0.818134 0.082500
0.769316 0.838747 0.082500
0.827188 0.855363 0.082500
0.905706 0.864887 0.082500
1.000000 0.867719 0.082500
0.000000 0.029772 0.082500
0.396129 0.039863 0.082500
0.611313 0.087003 0.082500
0.706150 0.152819 0.082500
0.740655 0.238748 0.082500
0.764767 0.321472 0.082500
0.754413 0.399964 0.082500
0.741489 0.469637 0.082500
0.715421 0.528610 0.082500
0.692825 0.577810 0.082500
0.664948 0.619514 0.082500
0.639662 0.655793 0.082500
0.616524 0.688049 0.082500
0.603827 0.721384 0.082500
0.600036 0.754413 0.082500
0.610497 0.788812 0.082500
0.633567 0.821830 0.082500
0.693273 0.853150 0.082500
0.767590 0.877025 0.082500
0.876715 0.888538 0.082500
1.000000 0.891515 0.082500
0.000000 0.035066 0.082500
0.371089 0.045665 0.082500
0.582801 0.091514 0.082500
0.676916 0.159312 0.082500
0.714867 0.241841 0.082500
0.733470 0.324264 0.082500
0.721384 0.396173 0.082500
0.703621 0.462925 0.082500
0.674105 0.516273 0.082500
0.646546 0.562240 0.082500
0.614145 0.599885 0.082500
0.583133 0.634201 0.082500
0.554265 0.666525 0.082500
0.537075 0.703621 0.082500
0.530363 0.741489 0.082500
0.539207 0.781364 0.082500
0.561390 0.820123 0.082500
0.621895 0.858475 0.082500
0.704093 0.889556 0.082500
0.839612 0.904798 0.082500
1.000000 0.909790 0.082500
0.000000 0.040871 0.082500
0.341494 0.051571 0.082500
0.548552 0.093698 0.082500
0.642029 0.160525 0.082500
0.686127 0.238755 0.082500
0.699096 0.316441 0.082500
0.688049 0.383476 0.082500
0.666525 0.445735 0.082500
0.634779 0.495579 0.082500
0.603136 0.537921 0.082500
0.567490 0.571618 0.082500
0.535001 0.603744 0.082500
0.504421 0.634779 0.082500
0.483727 0.674105 0.082500
0.471390 0.715421 0.082500
0.475029 0.761800 0.082500
0.491171 0.807328 0.082500
0.552422 0.856163 0.082500
0.641153 0.896564 0.082500
0.800339 0.917186 0.082500
1.000000 0.923657 0.082500
0.000000 0.047666 0.082500
0.307127 0.057740 0.082500
0.507773 0.094242 0.082500
0.600829 0.156143 0.082500
0.652445 0.228076 0.082500
0.662992 0.297326 0.082500
0.655793 0.360338 0.082500
0.634201 0.416867 0.082500
0.603744 0.464999 0.082500
0.569530 0.504375 0.082500
0.531973 0.537052 0.082500
0.495625 0.569530 0.082500
0.462079 0.603136 0.082500
0.437760 0.646546 0.082500
0.422190 0.692825 0.082500
0.422794 0.744909 0.082500
0.436646 0.797709 0.082500
0.496696 0.854026 0.082500
0.586895 0.901218 0.082500
0.762977 0.926849 0.082500
1.000000 0.934648 0.082500
0.000000 0.055899 0.082500
0.272429 0.064966 0.082500
0.462649 0.095812 0.082500
0.555291 0.151076 0.082500
0.612286 0.216431 0.082500
0.622953 0.276451 0.082500
0.619514 0.335052 0.082500
0.599885 0.385855 0.082500
0.571618 0.432510 0.082500
0.537052 0.468027 0.082500
0.500000 0.500000 0.082500
0.462948 0.531973 0.082500
0.428382 0.567490 0.082500
0.400115 0.614145 0.082500
0.380486 0.664948 0.082500
0.377047 0.723549 0.082500
0.387714 0.783569 0.082500
0.444709 0.848924 0.082500
0.537351 0.904188 0.082500
0.727571 0.935034 0.082500
1.000000 0.944101 0.082500
0.000000 0.065352 0.082500
0.237023 0.073151 0.082500
0.413105 0.098782 0.082500
0.503304 0.145974 0.082500
0.563354 0.202291 0.082500
0.577206 0.255091 0.082500
0.577810 0.307175 0.082500
0.562240 0.353454 0.082500
0.537921 0.396864 0.082500
0.504375 0.430470 0.082500
0.468027 0.462948 0.082500
0.430470 0.495625 0.082500
0.396256 0.535001 0.082500
0.365799 0.583133 0.082500
0.344207 0.639662 0.082500
0.337008 0.702674 0.082500
0.347555 0.771924 0.082500
0.399171 0.843857 0.082500
0.492227 0.905758 0.082500
0.692873 0.942260 0.082500
1.000000 0.952334 0.082500
0.000000 0.076343 0.082500
0.199661 0.082814 0.082500
0.358847 0.103436 0.082500
0.447578 0.143837 0.082500
0.508829 0.192672 0.082500
0.524971 0.238200 0.082500
0.528610 0.284579 0.082500
0.516273 0.325895 0.082500
0.495579 0.365221 0.082500
0.464999 0.396256 0.082500
0.432510 0.428382 0.082500
0.396864 0.462079 0.082500
0.365221 0.504421 0.082500
0.333475 0.554265 0.082500
0.311951 0.616524 0.082500
0.300904 0.683559 0.082500
0.313873 0.761245 0.082500
0.357971 0.839475 0.082500
0.451448 0.906302 0.082500
0.658506 0.948429 0.082500
1.000000 0.959129 0.082500
0.000000 0.090210 0.082500
0.160388 0.095202 0.082500
0.295907 0.110444 0.082500
0.378105 0.141525 0.082500
0.438610 0.179877 0.082500
0.460793 0.218636 0.082500
0.469637 0.258511 0.082500
0.462925 0.296379 0.082500
0.445735 0.333475 0.082500
0.416867 0.365799 0.082500
0.385855 0.400115 0.082500
0.353454 0.437760 0.082500
0.325895 0.483727 0.082500
0.296379 0.537075 0.082500
0.278616 0.603827 0.082500
0.266530 0.675736 0.082500
0.285133 0.758159 0.082500
0.323084 0.840688 0.082500
0.417199 0.908486 0.082500
0.628911 0.954335 0.082500
1.000000 0.964934 0.082500
0.000000 0.108485 0.082500
0.123285 0.111462 0.082500
0.232410 0.122975 0.082500
0.306727 0.146850 0.082500