# vtk DataFile Version 2.0
Mesh for Fierro
ASCII 
DATASET UNSTRUCTURED_GRID

POINTS 2205 float
0.000000 0.000000 0.000000
0.555934 0.000000 0.000000
0.836262 0.000000 0.000000
0.874484 0.000000 0.000000
0.904300 0.000000 0.000000
0.922837 0.000000 0.000000
0.935999 0.000000 0.000000
0.947465 0.000000 0.000000
0.955842 0.000000 0.000000
0.962495 0.000000 0.000000
0.968016 0.000000 0.000000
0.972370 0.000000 0.000000
0.975734 0.000000 0.000000
0.978608 0.000000 0.000000
0.981205 0.000000 0.000000
0.983846 0.000000 0.000000
0.986531 0.000000 0.000000
0.989540 0.000000 0.000000
0.992949 0.000000 0.000000
0.996476 0.000000 0.000000
1.000000 0.000000 0.000000
0.000000 0.003524 0.000000
0.554490 0.006051 0.000000
0.821605 0.028775 0.000000
0.861769 0.067721 0.000000
0.896145 0.094082 0.000000
0.913549 0.144746 0.000000
0.925930 0.189476 0.000000
0.933319 0.240757 0.000000
0.938660 0.294398 0.000000
0.943180 0.342802 0.000000
0.947353 0.387375 0.000000
0.951352 0.429365 0.000000
0.954955 0.469147 0.000000
0.958928 0.502004 0.000000
0.963172 0.528911 0.000000
0.967954 0.550824 0.000000
0.973422 0.565702 0.000000
0.980081 0.569831 0.000000
0.987372 0.559309 0.000000
0.993949 0.554490 0.000000
1.000000 0.555934 0.000000
0.000000 0.007051 0.000000
0.559309 0.012628 0.000000
0.800394 0.049467 0.000000
0.848711 0.113718 0.000000
0.887645 0.183631 0.000000
0.899793 0.264493 0.000000
0.906361 0.343032 0.000000
0.909832 0.423737 0.000000
0.908435 0.496740 0.000000
0.907198 0.551471 0.000000
0.903996 0.597792 0.000000
0.898618 0.636040 0.000000
0.892128 0.668636 0.000000
0.889572 0.695029 0.000000
0.890939 0.718030 0.000000
0.898292 0.737909 0.000000
0.911114 0.757043 0.000000
0.928925 0.778898 0.000000
0.950533 0.800394 0.000000
0.971225 0.821605 0.000000
1.000000 0.836262 0.000000
0.000000 0.010460 0.000000
0.569831 0.019919 0.000000
0.778898 0.071075 0.000000
0.841395 0.148259 0.000000
0.867308 0.254688 0.000000
0.875974 0.337716 0.000000
0.879580 0.426218 0.000000
0.870376 0.507277 0.000000
0.855530 0.571361 0.000000
0.841760 0.620936 0.000000
0.823325 0.666367 0.000000
0.806713 0.706076 0.000000
0.791899 0.742831 0.000000
0.787870 0.773233 0.000000
0.792068 0.798181 0.000000
0.804685 0.817457 0.000000
0.824931 0.831196 0.000000
0.851741 0.841395 0.000000
0.886282 0.848711 0.000000
0.932279 0.861769 0.000000
1.000000 0.874484 0.000000
0.000000 0.013469 0.000000
0.565702 0.026578 0.000000
0.757043 0.088886 0.000000
0.831196 0.175069 0.000000
0.838218 0.299712 0.000000
0.852033 0.386638 0.000000
0.843474 0.485447 0.000000
0.818954 0.557342 0.000000
0.791848 0.616256 0.000000
0.765181 0.662810 0.000000
0.736176 0.700018 0.000000
0.715650 0.727956 0.000000
0.695375 0.748937 0.000000
0.683310 0.768376 0.000000
0.679255 0.788361 0.000000
0.682943 0.811480 0.000000
0.700288 0.838218 0.000000
0.745312 0.867308 0.000000
0.816369 0.887645 0.000000
0.905918 0.896145 0.000000
1.000000 0.904300 0.000000
0.000000 0.016154 0.000000
0.550824 0.032046 0.000000
0.737909 0.101708 0.000000
0.817457 0.195315 0.000000
0.811480 0.317057 0.000000
0.827850 0.411399 0.000000
0.807581 0.500788 0.000000
0.775187 0.565457 0.000000
0.740825 0.618557 0.000000
0.705711 0.659084 0.000000
0.666836 0.691717 0.000000
0.630250 0.719938 0.000000
0.596346 0.745908 0.000000
0.579604 0.774277 0.000000
0.575470 0.801551 0.000000
0.588601 0.827850 0.000000
0.613362 0.852033 0.000000
0.662284 0.875974 0.000000
0.735507 0.899793 0.000000
0.855254 0.913549 0.000000
1.000000 0.922837 0.000000
0.000000 0.018795 0.000000
0.528911 0.036828 0.000000
0.718030 0.109061 0.000000
0.798181 0.207932 0.000000
0.788361 0.320745 0.000000
0.801551 0.424530 0.000000
0.770544 0.502050 0.000000
0.733990 0.562227 0.000000
0.690765 0.609504 0.000000
0.650484 0.644455 0.000000
0.607641 0.670934 0.000000
0.570478 0.694581 0.000000
0.536784 0.714767 0.000000
0.513368 0.741417 0.000000
0.497950 0.770544 0.000000
0.499212 0.807581 0.000000
0.514553 0.843474 0.000000
0.573782 0.879580 0.000000
0.656968 0.906361 0.000000
0.810524 0.925930 0.000000
1.000000 0.935999 0.000000
0.000000 0.021392 0.000000
0.502004 0.041072 0.000000
0.695029 0.110428 0.000000
0.773233 0.212130 0.000000
0.768376 0.316690 0.000000
0.774277 0.420396 0.000000
0.741417 0.486632 0.000000
0.701087 0.544097 0.000000
0.654653 0.583201 0.000000
0.611195 0.613727 0.000000
0.565669 0.635357 0.000000
0.522763 0.653978 0.000000
0.483574 0.672511 0.000000
0.455903 0.701087 0.000000
0.437773 0.733990 0.000000
0.434543 0.775187 0.000000
0.442658 0.818954 0.000000
0.492723 0.870376 0.000000
0.576263 0.909832 0.000000
0.759243 0.933319 0.000000
1.000000 0.947465 0.000000
0.000000 0.024266 0.000000
0.469147 0.045045 0.000000
0.668636 0.107872 0.000000
0.742831 0.208101 0.000000
0.748937 0.304625 0.000000
0.745908 0.403654 0.000000
0.714767 0.463216 0.000000
0.672511 0.516426 0.000000
0.623762 0.549238 0.000000
0.578679 0.576102 0.000000
0.532773 0.592025 0.000000
0.490920 0.607988 0.000000
0.450762 0.623762 0.000000
0.416799 0.654653 0.000000
0.390496 0.690765 0.000000
0.381443 0.740825 0.000000
0.383744 0.791848 0.000000
0.428639 0.855530 0.000000
0.503260 0.908435 0.000000
0.705602 0.938660 0.000000
1.000000 0.955842 0.000000
0.000000 0.027630 0.000000
0.429365 0.048648 0.000000
0.636040 0.101382 0.000000
0.706076 0.193287 0.000000
0.727956 0.284350 0.000000
0.719938 0.369750 0.000000
0.694581 0.429522 0.000000
0.653978 0.477237 0.000000
0.607988 0.509080 0.000000
0.561200 0.532330 0.000000
0.513718 0.546491 0.000000
0.467670 0.561200 0.000000
0.423898 0.578679 0.000000
0.386273 0.611195 0.000000
0.355545 0.650484 0.000000
0.340916 0.705711 0.000000
0.337190 0.765181 0.000000
0.379064 0.841760 0.000000
0.448529 0.907198 0.000000
0.657198 0.943180 0.000000
1.000000 0.962495 0.000000
0.000000 0.031984 0.000000
0.387375 0.052647 0.000000
0.597792 0.096004 0.000000
0.666367 0.176675 0.000000
0.700018 0.263824 0.000000
0.691717 0.333164 0.000000
0.670934 0.392359 0.000000
0.635357 0.434331 0.000000
0.592025 0.467227 0.000000
0.546491 0.486282 0.000000
0.500000 0.500000 0.000000
0.453509 0.513718 0.000000
0.407975 0.532773 0.000000
0.364643 0.565669 0.000000
0.329066 0.607641 0.000000
0.308283 0.666836 0.000000
0.299982 0.736176 0.000000
0.333633 0.823325 0.000000
0.402208 0.903996 0.000000
0.612625 0.947353 0.000000
1.000000 0.968016 0.000000
0.000000 0.037505 0.000000
0.342802 0.056820 0.000000
0.551471 0.092802 0.000000
0.620936 0.158240 0.000000
0.662810 0.234819 0.000000
0.659084 0.294289 0.000000
0.644455 0.349516 0.000000
0.613727 0.388805 0.000000
0.576102 0.421321 0.000000
0.532330 0.438800 0.000000
0.486282 0.453509 0.000000
0.438800 0.467670 0.000000
0.392012 0.490920 0.000000
0.346022 0.522763 0.000000
0.305419 0.570478 0.000000
0.280062 0.630250 0.000000
0.272044 0.715650 0.000000
0.293924 0.806713 0.000000
0.363960 0.898618 0.000000
0.570635 0.951352 0.000000
1.000000 0.972370 0.000000
0.000000 0.044158 0.000000
0.294398 0.061340 0.000000
0.496740 0.091565 0.000000
0.571361 0.144470 0.000000
0.616256 0.208152 0.000000
0.618557 0.259175 0.000000
0.609504 0.309235 0.000000
0.583201 0.345347 0.000000
0.549238 0.376238 0.000000
0.509080 0.392012 0.000000
0.467227 0.407975 0.000000
0.421321 0.423898 0.000000
0.376238 0.450762 0.000000
0.327489 0.483574 0.000000
0.285233 0.536784 0.000000
0.254092 0.596346 0.000000
0.251063 0.695375 0.000000
0.257169 0.791899 0.000000
0.331364 0.892128 0.000000
0.530853 0.954955 0.000000
1.000000 0.975734 0.000000
0.000000 0.052535 0.000000
0.240757 0.066681 0.000000
0.423737 0.090168 0.000000
0.507277 0.129624 0.000000
0.557342 0.181046 0.000000
0.565457 0.224813 0.000000
0.562227 0.266010 0.000000
0.544097 0.298913 0.000000
0.516426 0.327489 0.000000
0.477237 0.346022 0.000000
0.434331 0.364643 0.000000
0.388805 0.386273 0.000000
0.345347 0.416799 0.000000
0.298913 0.455903 0.000000
0.258583 0.513368 0.000000
0.225723 0.579604 0.000000
0.231624 0.683310 0.000000
0.226767 0.787870 0.000000
0.304971 0.889572 0.000000
0.497996 0.958928 0.000000
1.000000 0.978608 0.000000
0.000000 0.064001 0.000000
0.189476 0.074070 0.000000
0.343032 0.093639 0.000000
0.426218 0.120420 0.000000
0.485447 0.156526 0.000000
0.500788 0.192419 0.000000
0.502050 0.229456 0.000000
0.486632 0.258583 0.000000
0.463216 0.285233 0.000000
0.429522 0.305419 0.000000
0.392359 0.329066 0.000000
0.349516 0.355545 0.000000
0.309235 0.390496 0.000000
0.266010 0.437773 0.000000
0.229456 0.497950 0.000000
0.198449 0.575470 0.000000
0.211639 0.679255 0.000000
0.201819 0.792068 0.000000
0.281970 0.890939 0.000000
0.471089 0.963172 0.000000
1.000000 0.981205 0.000000
0.000000 0.077163 0.000000
0.144746 0.086451 0.000000
0.264493 0.100207 0.000000
0.337716 0.124026 0.000000
0.386638 0.147967 0.000000
0.411399 0.172150 0.000000
0.424530 0.198449 0.000000
0.420396 0.225723 0.000000
0.403654 0.254092 0.000000
0.369750 0.280062 0.000000
0.333164 0.308283 0.000000
0.294289 0.340916 0.000000
0.259175 0.381443 0.000000
0.224813 0.434543 0.000000
0.192419 0.499212 0.000000
0.172150 0.588601 0.000000
0.188520 0.682943 0.000000
0.182543 0.804685 0.000000
0.262091 0.898292 0.000000
0.449176 0.967954 0.000000
1.000000 0.983846 0.000000
0.000000 0.095700 0.000000
0.094082 0.103855 0.000000
0.183631 0.112355 0.000000
0.254688 0.132692 0.000000
0.299712 0.161782 0.000000
0.317057 0.188520 0.000000
0.320745 0.211639 0.000000
0.316690 0.231624 0.000000
0.304625 0.251063 0.000000
0.284350 0.272044 0.000000
0.263824 0.299982 0.000000
0.234819 0.337190 0.000000
0.208152 0.383744 0.000000
0.181046 0.442658 0.000000
0.156526 0.514553 0.000000
0.147967 0.613362 0.000000
0.161782 0.700288 0.000000
0.168804 0.824931 0.000000
0.242957 0.911114 0.000000
0.434298 0.973422 0.000000
1.000000 0.986531 0.000000
0.000000 0.125516 0.000000
0.067721 0.138231 0.000000
0.113718 0.151289 0.000000
0.148259 0.158605 0.000000
0.175069 0.168804 0.000000
0.195315 0.182543 0.000000
0.207932 0.201819 0.000000
0.212130 0.226767 0.000000
0.208101 0.257169 0.000000
[...]
POINT_DATA 2205 
VECTORS pos float 
0.000000 0.000000 0.000000
0.555934 0.000000 0.000000
0.836262 0.000000 0.000000
0.874484 0.000000 0.000000
0.904300 0.000000 0.000000
0.922837 0.000000 0.000000
0.935999 0.000000 0.000000
0.947465 0.000000 0.000000
0.955842 0.000000 0.000000
0.962495 0.000000 0.000000
0.968016 0.000000 0.000000
0.972370 0.000000 0.000000
0.975734 0.000000 0.000000
0.978608 0.000000 0.000000
0.981205 0.000000 0.000000
0.983846 0.000000 0.000000
0.986531 0.000000 0.000000
0.989540 0.000000 0.000000
0.992949 0.000000 0.000000
0.996476 0.000000 0.000000
1.000000 0.000000 0.000000
0.000000 0.003524 0.000000
0.554490 0.006051 0.000000
0.821605 0.028775 0.000000
0.861769 0.067721 0.000000
0.896145 0.094082 0.000000
0.913549 0.144746 0.000000
0.925930 0.189476 0.000000
0.933319 0.240757 0.000000
0.938660 0.294398 0.000000
0.943180 0.342802 0.000000
0.947353 0.387375 0.000000
0.951352 0.429365 0.000000
0.954955 0.469147 0.000000
0.958928 0.502004 0.000000
0.963172 0.528911 0.000000
0.967954 0.550824 0.000000
0.973422 0.565702 0.000000
0.980081 0.569831 0.000000
0.987372 0.559309 0.000000
0.993949 0.554490 0.000000
1.000000 0.555934 0.000000
0.000000 0.007051 0.000000
0.559309 0.012628 0.000000
0.800394 0.049467 0.000000
0.848711 0.113718 0.000000
0.887645 0.183631 0.000000
0.899793 0.264493 0.000000
0.906361 0.343032 0.000000
0.909832 0.423737 0.000000
0.908435 0.496740 0.000000
0.907198 0.551471 0.000000
0.903996 0.597792 0.000000
0.898618 0.636040 0.000000
0.892128 0.668636 0.000000
0.889572 0.695029 0.000000
0.890939 0.718030 0.000000
0.898292 0.737909 0.000000
0.911114 0.757043 0.000000
0.928925 0.778898 0.000000
0.950533 0.800394 0.000000
0.971225 0.821605 0.000000
1.000000 0.836262 0.000000
0.000000 0.010460 0.000000
0.569831 0.019919 0.000000
0.778898 0.071075 0.000000
0.841395 0.148259 0.000000
0.867308 0.254688 0.000000
0.875974 0.337716 0.000000
0.879580 0.426218 0.000000
0.870376 0.507277 0.000000
0.855530 0.571361 0.000000
0.841760 0.620936 0.000000
0.823325 0.666367 0.000000
0.806713 0.706076 0.000000
0.791899 0.742831 0.000000
0.787870 0.773233 0.000000
0.792068 0.798181 0.000000
0.804685 0.817457 0.000000
0.824931 0.831196 0.000000
0.851741 0.841395 0.000000
0.886282 0.848711 0.000000
0.932279 0.861769 0.000000
1.000000 0.874484 0.000000
0.000000 0.013469 0.000000
0.565702 0.026578 0.000000
0.757043 0.088886 0.000000
0.831196 0.175069 0.000000
0.838218 0.299712 0.000000
0.852033 0.386638 0.000000
0.843474 0.485447 0.000000
0.818954 0.557342 0.000000
0.791848 0.616256 0.000000
0.765181 0.662810 0.000000
0.736176 0.700018 0.000000
0.715650 0.727956 0.000000
0.695375 0.748937 0.000000
0.683310 0.768376 0.000000
0.679255 0.788361 0.000000
0.682943 0.811480 0.000000
0.700288 0.838218 0.000000
0.745312 0.867308 0.000000
0.816369 0.887645 0.000000
0.905918 0.896145 0.000000
1.000000 0.904300 0.000000
0.000000 0.016154 0.000000
0.550824 0.032046 0.000000
0.737909 0.101708 0.000000
0.817457 0.195315 0.000000
0.811480 0.317057 0.000000
0.827850 0.411399 0.000000
0.807581 0.500788 0.000000
0.775187 0.565457 0.000000
0.740825 0.618557 0.000000
0.705711 0.659084 0.000000
0.666836 0.691717 0.000000
0.630250 0.719938 0.000000
0.596346 0.745908 0.000000
0.579604 0.774277 0.000000
0.575470 0.801551 0.000000
0.588601 0.827850 0.000000
0.613362 0.852033 0.000000
0.662284 0.875974 0.000000
0.735507 0.899793 0.000000
0.855254 0.913549 0.000000
1.000000 0.922837 0.000000
0.000000 0.018795 0.000000
0.528911 0.036828 0.000000
0.718030 0.109061 0.000000
0.798181 0.207932 0.000000
0.788361 0.320745 0.000000
0.801551 0.424530 0.000000
0.770544 0.502050 0.000000
0.733990 0.562227 0.000000
0.690765 0.609504 0.000000
0.650484 0.644455 0.000000
0.607641 0.670934 0.000000
0.570478 0.694581 0.000000
0.536784 0.714767 0.000000
0.513368 0.741417 0.000000
0.497950 0.770544 0.000000
0.499212 0.807581 0.000000
0.514553 0.843474 0.000000
0.573782 0.879580 0.000000
0.656968 0.906361 0.000000
0.810524 0.925930 0.000000
1.000000 0.935999 0.000000
0.000000 0.021392 0.000000
0.502004 0.041072 0.000000
0.695029 0.110428 0.000000
0.773233 0.212130 0.000000
0.768376 0.316690 0.000000
0.774277 0.420396 0.000000
0.741417 0.486632 0.000000
0.701087 0.544097 0.000000
0.654653 0.583201 0.000000
0.611195 0.613727 0.000000
0.565669 0.635357 0.000000
0.522763 0.653978 0.000000
0.483574 0.672511 0.000000
0.455903 0.701087 0.000000
0.437773 0.733990 0.000000
0.434543 0.775187 0.000000
0.442658 0.818954 0.000000
0.492723 0.870376 0.000000
0.576263 0.909832 0.000000
0.759243 0.933319 0.000000
1.000000 0.947465 0.000000
0.000000 0.024266 0.000000
0.469147 0.045045 0.000000
0.668636 0.107872 0.000000
0.742831 0.208101 0.000000
0.748937 0.304625 0.000000
0.745908 0.403654 0.000000
0.714767 0.463216 0.000000
0.672511 0.516426 0.000000
0.623762 0.549238 0.000000
0.578679 0.576102 0.000000
0.532773 0.592025 0.000000
0.490920 0.607988 0.000000
0.450762 0.623762 0.000000
0.416799 0.654653 0.000000
0.390496 0.690765 0.000000
0.381443 0.740825 0.000000
0.383744 0.791848 0.000000
0.428639 0.855530 0.000000
0.503260 0.908435 0.000000
0.705602 0.938660 0.000000
1.000000 0.955842 0.000000
0.000000 0.027630 0.000000
0.429365 0.048648 0.000000
0.636040 0.101382 0.000000
0.706076 0.193287 0.000000
0.727956 0.284350 0.000000
0.719938 0.369750 0.000000
0.694581 0.429522 0.000000
0.653978 0.477237 0.000000
0.607988 0.509080 0.000000
0.561200 0.532330 0.000000
0.513718 0.546491 0.000000
0.467670 0.561200 0.000000
0.423898 0.578679 0.000000
0.386273 0.611195 0.000000
0.355545 0.650484 0.000000
0.340916 0.705711 0.000000
0.337190 0.765181 0.000000
0.379064 0.841760 0.000000
0.448529 0.907198 0.000000
0.657198 0.943180 0.000000
1.000000 0.962495 0.000000
0.000000 0.031984 0.000000
0.387375 0.052647 0.000000
0.597792 0.096004 0.000000
0.666367 0.176675 0.000000
0.700018 0.263824 0.000000
0.691717 0.333164 0.000000
0.670934 0.392359 0.000000
0.635357 0.434331 0.000000
0.592025 0.467227 0.000000
0.546491 0.486282 0.000000
0.500000 0.500000 0.000000
0.453509 0.513718 0.000000
0.407975 0.532773 0.000000
0.364643 0.565669 0.000000
0.329066 0.607641 0.000000
0.308283 0.666836 0.000000
0.299982 0.736176 0.000000
0.333633 0.823325 0.000000
0.402208 0.903996 0.000000
0.612625 0.947353 0.000000
1.000000 0.968016 0.000000
0.000000 0.037505 0.000000
0.342802 0.056820 0.000000
0.551471 0.092802 0.000000
0.620936 0.158240 0.000000
0.662810 0.234819 0.000000
0.659084 0.294289 0.000000
0.644455 0.349516 0.000000
0.613727 0.388805 0.000000
0.576102 0.421321 0.000000
0.532330 0.438800 0.000000
0.486282 0.453509 0.000000
0.438800 0.467670 0.000000
0.392012 0.490920 0.000000
0.346022 0.522763 0.000000
0.305419 0.570478 0.000000
0.280062 0.630250 0.000000
0.272044 0.715650 0.000000
0.293924 0.806713 0.000000
0.363960 0.898618 0.000000
0.570635 0.951352 0.000000
1.000000 0.972370 0.000000
0.000000 0.044158 0.000000
0.294398 0.061340 0.000000
0.496740 0.091565 0.000000
0.571361 0.144470 0.000000
0.616256 0.208152 0.000000
0.618557 0.259175 0.000000
0.609504 0.309235 0.000000
0.583201 0.345347 0.000000
0.549238 0.376238 0.000000
0.509080 0.392012 0.000000
0.467227 0.407975 0.000000
0.421321 0.423898 0.000000
0.376238 0.450762 0.000000
0.327489 0.483574 0.000000
0.285233 0.536784 0.000000
0.254092 0.596346 0.000000
0.251063 0.695375 0.000000
0.257169 0.791899 0.000000
0.331364 0.892128 0.000000
0.530853 0.954955 0.000000
1.000000 0.975734 0.000000
0.000000 0.052535 0.000000
0.240757 0.066681 0.000000
0.423737 0.090168 0.000000
0.507277 0.129624 0.000000
0.557342 0.181046 0.000000
0.565457 0.224813 0.000000
0.562227 0.266010 0.000000
0.544097 0.298913 0.000000
0.516426 0.327489 0.000000
0.477237 0.346022 0.000000
0.434331 0.364643 0.000000
0.388805 0.386273 0.000000
0.345347 0.416799 0.000000
0.298913 0.455903 0.000000
0.258583 0.513368 0.000000
0.225723 0.579604 0.000000
0.231624 0.683310 0.000000
0.226767 0.787870 0.000000
0.304971 0.889572 0.000000
0.497996 0.958928 0.000000
1.000000 0.978608 0.000000
0.000000 0.064001 0.000000
0.189476 0.074070 0.000000
0.343032 0.093639 0.000000
0.426218 0.120420 0.000000
0.485447 0.156526 0.000000
0.500788 0.192419 0.000000
0.502050 0.229456 0.000000
0.486632 0.258583 0.000000
0.463216 0.285233 0.000000
0.429522 0.305419 0.000000
0.392359 0.329066 0.000000
0.349516 0.355545 0.000000
0.309235 0.390496 0.000000
0.266010 0.437773 0.000000
0.229456 0.497950 0.000000
0.198449 0.575470 0.000000
0.211639 0.679255 0.000000
0.201819 0.792068 0.000000
0.281970 0.890939 0.000000
0.471089 0.963172 0.000000
1.000000 0.981205 0.000000
0.000000 0.077163 0.000000
0.144746 0.086451 0.000000
0.264493 0.100207 0.000000
0.337716 0.124026 0.000000
0.386638 0.147967 0.000000
0.411399 0.172150 0.000000
0.424530 0.198449 0.000000
0.420396 0.225723 0.000000
0.403654 0.254092 0.000000
0.369750 0.280062 0.000000
0.333164 0.308283 0.000000
0.294289 0.340916 0.000000
0.259175 0.381443 0.000000
0.224813 0.434543 0.000000
0.192419 0.499212 0.000000
0.172150 0.588601 0.000000
0.188520 0.682943 0.000000
0.182543 0.804685 0.000000
0.262091 0.898292 0.000000
0.449176 0.967954 0.000000
1.000000 0.983846 0.000000
0.000000 0.095700 0.000000
0.094082 0.103855 0.000000
0.183631 0.112355 0.000000
0.254688 0.132692 0.000000
0.299712 0.161782 0.000000
0.317057 0.188520 0.000000
0.320745 0.211639 0.000000
0.316690 0.231624 0.000000
0.304625 0.251063 0.000000
0.284350 0.272044 0.000000
0.263824 0.299982 0.000000
0.234819 0.337190 0.000000
0.208152 0.383744 0.000000
0.181046 0.442658 0.000000
0.156526 0.514553 0.000000
0.147967 0.613362 0.000000
0.161782 0.700288 0.000000
0.168804 0.824931 0.000000
0.242957 0.911114 0.000000
0.434298 0.973422 0.000000
1.000000 0.986531 0.000000
0.000000 0.125516 0.000000
0.067721 0.138231 0.000000
0.113718 0.151289 0.000000
0.148259 0.158605 0.000000
0.175069 0.168804 0.000000
0.195315 0.182543 0.000000
0.207932 0.201819 0.000000
0.212130 0.226767 0.000000
0.208101 0.257169 0.000000
0.193287 0.293924 0.000000
0.176675 0.333633 0.000000
0.158240 0.379064 0.000000
0.144470 0.428639 0.000000
0.129624 0.492723 0.000000
0.120420 0.573782 0.000000
0.124026 0.662284 0.000000
0.132692 0.745312 0.000000
0.158605 0.851741 0.000000
0.221102 0.928925 0.000000
0.430169 0.980081 0.000000
1.000000 0.989540 0.000000
0.000000 0.163738 0.000000
0.028775 0.178395 0.000000
0.049467 0.199606 0.000000
0.071075 0.221102 0.000000
0.088886 0.242957 0.000000
0.101708 0.262091 0.000000
0.109061 0.281970 0.000000
0.110428 0.304971 0.000000
0.107872 0.331364 0.000000
0.101382 0.363960 0.000000
0.096004 0.402208 0.000000
0.092802 0.448529 0.000000
0.091565 0.503260 0.000000
0.090168 0.576263 0.000000
0.093639 0.656968 0.000000
0.100207 0.735507 0.000000
0.112355 0.816369 0.000000
0.151289 0.886282 0.000000
0.199606 0.950533 0.000000
0.440691 0.987372 0.000000
1.000000 0.992949 0.000000
0.000000 0.444066 0.000000
0.006051 0.445510 0.000000
0.012628 0.440691 0.000000
0.019919 0.430169 0.000000
0.026578 0.434298 0.000000
0.032046 0.449176 0.000000
0.036828 0.471089 0.000000
0.041072 0.497996 0.000000
0.045045 0.530853 0.000000
0.048648 0.570635 0.000000
0.052647 0.612625 0.000000
0.056820 0.657198 0.000000
0.061340 0.705602 0.000000
0.066681 0.759243 0.000000
0.074070 0.810524 0.000000
0.086451 0.855254 0.000000
0.103855 0.905918 0.000000
0.138231 0.932279 0.000000
0.178395 0.971225 0.000000
0.445510 0.993949 0.000000
1.000000 0.996476 0.000000
0.000000 1.000000 0.000000
0.003524 1.000000 0.000000
0.007051 1.000000 0.000000
0.010460 1.000000 0.000000
0.013469 1.000000 0.000000
0.016154 1.000000 0.000000
0.018795 1.000000 0.000000
0.021392 1.000000 0.000000
0.024266 1.000000 0.000000
0.027630 1.000000 0.000000
0.031984 1.000000 0.000000
0.037505 1.000000 0.000000
0.044158 1.000000 0.000000
0.052535 1.000000 0.000000
0.064001 1.000000 0.000000
0.077163 1.000000 0.000000
0.095700 1.000000 0.000000
0.125516 1.000000 0.000000
0.163738 1.000000 0.000000
0.444066 1.000000 0.000000
1.000000 1.000000 0.000000
0.000000 0.000000 0.082500
0.555934 0.000000 0.082500
0.836262 0.000000 0.082500
0.874484 0.000000 0.082500
0.904300 0.000000 0.082500
0.922837 0.000000 0.082500
0.935999 0.000000 0.082500
0.947465 0.000000 0.082500
0.955842 0.000000 0.082500
0.962495 0.000000 0.082500
0.968016 0.000000 0.082500
0.972370 0.000000 0.082500
0.975734 0.000000 0.082500
0.978608 0.000000 0.082500
0.981205 0.000000 0.082500
0.983846 0.000000 0.082500
0.986531 0.000000 0.082500
0.989540 0.000000 0.082500
0.992949 0.000000 0.082500
0.996476 0.000000 0.082500
1.000000 0.000000 0.082500
0.000000 0.003524 0.082500
0.554490 0.006051 0.082500
0.821605 0.028775 0.082500
0.861769 0.067721 0.082500
0.896145 0.094082 0.082500
0.913549 0.144746 0.082500
0.925930 0.189476 0.082500
0.933319 0.240757 0.082500
0.938660 0.294398 0.082500
0.943180 0.342802 0.082500
0.947353 0.387375 0.082500
0.951352 0.429365 0.082500
0.954955 0.469147 0.082500
0.958928 0.502004 0.082500
0.963172 0.528911 0.082500
0.967954 0.550824 0.082500
0.973422 0.565702 0.082500
0.980081 0.569831 0.082500
0.987372 0.559309 0.082500
0.993949 0.554490 0.082500
1.000000 0.555934 0.082500
0.000000 0.007051 0.082500
0.559309 0.012628 0.082500
0.800394 0.049467 0.082500
0.848711 0.113718 0.082500
0.887645 0.183631 0.082500
0.899793 0.264493 0.082500
0.906361 0.343032 0.082500
0.909832 0.423737 0.082500
0.908435 0.496740 0.082500
0.907198 0.551471 0.082500
0.903996 0.597792 0.082500
0.898618 0.636040 0.082500
0.892128 0.668636 0.082500
0.889572 0.695029 0.082500
0.890939 0.718030 0.082500
0.898292 0.737909 0.082500
0.911114 0.757043 0.082500
0.928925 0.778898 0.082500
0.950533 0.800394 0.082500
0.971225 0.821605 0.082500
1.000000 0.836262 0.082500
0.000000 0.010460 0.082500
0.569831 0.019919 0.082500
0.778898 0.071075 0.082500
0.841395 0.148259 0.082500
0.867308 0.254688 0.082500
0.875974 0.337716 0.082500
0.879580 0.426218 0.082500
0.870376 0.507277 0.082500
0.855530 0.571361 0.082500
0.841760 0.620936 0.082500
0.823325 0.666367 0.082500
0.806713 0.706076 0.082500
0.791899 0.742831 0.082500
0.787870 0.773233 0.082500
0.792068 0.798181 0.082500
0.804685 0.817457 0.082500
0.824931 0.831196 0.082500
0.851741 0.841395 0.082500
0.886282 0.848711 0.082500
0.932279 0.861769 0.082500
1.000000 0.874484 0.082500
0.000000 0.013469 0.082500
0.565702 0.026578 0.082500
0.757043 0.088886 0.082500
0.831196 0.175069 0.082500
0.838218 0.299712 0.082500
0.852033 0.386638 0.082500
0.843474 0.485447 0.082500
0.818954 0.557342 0.082500
0.791848 0.616256 0.082500
0.765181 0.662810 0.082500
0.736176 0.700018 0.082500
0.715650 0.727956 0.082500
0.695375 0.748937 0.082500
0.683310 0.768376 0.082500
0.679255 0.788361 0.082500
0.682943 0.811480 0.082500
0.700288 0.838218 0.082500
0.745312 0.867308 0.082500
0.816369 0.887645 0.082500
0.905918 0.896145 0.082500
1.000000 0.904300 0.082500
0.000000 0.016154 0.082500
0.550824 0.032046 0.082500
0.737909 0.101708 0.082500
0.817457 0.195315 0.082500
0.811480 0.317057 0.082500
0.827850 0.411399 0.082500
0.807581 0.500788 0.082500
0.775187 0.565457 0.082500
0.740825 0.618557 0.082500
0.705711 0.659084 0.082500
0.666836 0.691717 0.082500
0.630250 0.719938 0.082500
0.596346 0.745908 0.082500
0.579604 0.774277 0.082500
0.575470 0.801551 0.082500
0.588601 0.827850 0.082500
0.613362 0.852033 0.082500
0.662284 0.875974 0.082500
0.735507 0.899793 0.082500
0.855254 0.913549 0.082500
1.000000 0.922837 0.082500
0.000000 0.018795 0.082500
0.528911 0.036828 0.082500
0.718030 0.109061 0.082500
0.798181 0.207932 0.082500
0.788361 0.320745 0.082500
0.801551 0.424530 0.082500
0.770544 0.502050 0.082500
0.733990 0.562227 0.082500
0.690765 0.609504 0.082500
0.650484 0.644455 0.082500
0.607641 0.670934 0.082500
0.570478 0.694581 0.082500
0.536784 0.714767 0.082500
0.513368 0.741417 0.082500
0.497950 0.770544 0.082500
0.499212 0.807581 0.082500
0.514553 0.843474 0.082500
0.573782 0.879580 0.082500
0.656968 0.906361 0.082500
0.810524 0.925930 0.082500
1.000000 0.935999 0.082500
0.000000 0.021392 0.082500
0.502004 0.041072 0.082500
0.695029 0.110428 0.082500
0.773233 0.212130 0.082500
0.768376 0.316690 0.082500
0.774277 0.420396 0.082500
0.741417 0.486632 0.082500
0.701087 0.544097 0.082500
0.654653 0.583201 0.082500
0.611195 0.613727 0.082500
0.565669 0.635357 0.082500
0.522763 0.653978 0.082500
0.483574 0.672511 0.082500
0.455903 0.701087 0.082500
0.437773 0.733990 0.082500
0.434543 0.775187 0.082500
0.442658 0.818954 0.082500
0.492723 0.870376 0.082500
0.576263 0.909832 0.082500
0.759243 0.933319 0.082500
1.000000 0.947465 0.082500
0.000000 0.024266 0.082500
0.469147 0.045045 0.082500
0.668636 0.107872 0.082500
0.742831 0.208101 0.082500
0.748937 0.304625 0.082500
0.745908 0.403654 0.082500
0.714767 0.463216 0.082500
0.672511 0.516426 0.082500
0.623762 0.549238 0.082500
0.578679 0.576102 0.082500
0.532773 0.592025 0.082500
0.490920 0.607988 0.082500
0.450762 0.623762 0.082500
0.416799 0.654653 0.082500
0.390496 0.690765 0.082500
0.381443 0.740825 0.082500
0.383744 0.791848 0.082500
0.428639 0.855530 0.082500
0.503260 0.908435 0.082500
0.705602 0.938660 0.082500
1.000000 0.955842 0.082500
0.000000 0.027630 0.082500
0.429365 0.048648 0.082500
0.636040 0.101382 0.082500
0.706076 0.193287 0.082500
0.727956 0.284350 0.082500
0.719938 0.369750 0.082500
0.694581 0.429522 0.082500
0.653978 0.477237 0.082500
0.607988 0.509080 0.082500
0.561200 0.532330 0.082500
0.513718 0.546491 0.082500
0.467670 0.561200 0.082500
0.423898 0.578679 0.082500
0.386273 0.611195 0.082500
0.355545 0.650484 0.082500
0.340916 0.705711 0.082500
0.337190 0.765181 0.082500
0.379064 0.841760 0.082500
0.448529 0.907198 0.082500
0.657198 0.943180 0.082500
1.000000 0.962495 0.082500
0.000000 0.031984 0.082500
0.387375 0.052647 0.082500
0.597792 0.096004 0.082500
0.666367 0.176675 0.082500
0.700018 0.263824 0.082500
0.691717 0.333164 0.082500
0.670934 0.392359 0.082500
0.635357 0.434331 0.082500
0.592025 0.467227 0.082500
0.546491 0.486282 0.082500
0.500000 0.500000 0.082500
0.453509 0.513718 0.082500
0.407975 0.532773 0.082500
0.364643 0.565669 0.082500
0.329066 0.607641 0.082500
0.308283 0.666836 0.082500
0.299982 0.736176 0.082500
0.333633 0.823325 0.082500
0.402208 0.903996 0.082500
0.612625 0.947353 0.082500
1.000000 0.968016 0.082500
0.000000 0.037505 0.082500
0.342802 0.056820 0.082500
0.551471 0.092802 0.082500
0.620936 0.158240 0.082500
0.662810 0.234819 0.082500
0.659084 0.294289 0.082500
0.644455 0.349516 0.082500
0.613727 0.388805 0.082500
0.576102 0.421321 0.082500
0.532330 0.438800 0.082500
0.486282 0.453509 0.082500
0.438800 0.467670 0.082500
0.392012 0.490920 0.082500
0.346022 0.522763 0.082500
0.305419 0.570478 0.082500
0.280062 0.630250 0.082500
0.272044 0.715650 0.082500
0.293924 0.806713 0.082500
0.363960 0.898618 0.082500
0.570635 0.951352 0.082500
1.000000 0.972370 0.082500
0.000000 0.044158 0.082500
0.294398 0.061340 0.082500
0.496740 0.091565 0.082500
0.571361 0.144470 0.082500
0.616256 0.208152 0.082500
0.618557 0.259175 0.082500
0.609504 0.309235 0.082500
0.583201 0.345347 0.082500
0.549238 0.376238 0.082500
0.509080 0.392012 0.082500
0.467227 0.407975 0.082500
0.421321 0.423898 0.082500
0.376238 0.450762 0.082500
0.327489 0.483574 0.082500
0.285233 0.536784 0.082500
0.254092 0.596346 0.082500
0.251063 0.695375 0.082500
0.257169 0.791899 0.082500
0.331364 0.892128 0.082500
0.530853 0.954955 0.082500
1.000000 0.975734 0.082500
0.000000 0.052535 0.082500
0.240757 0.066681 0.082500
0.423737 0.090168 0.082500
0.507277 0.129624 0.082500
0.557342 0.181046 0.082500
0.565457 0.224813 0.082500
0.562227 0.266010 0.082500
0.544097 0.298913 0.082500
0.516426 0.327489 0.082500
0.477237 0.346022 0.082500
0.434331 0.364643 0.082500
0.388805 0.386273 0.082500
0.345347 0.416799 0.082500
0.298913 0.455903 0.082500
0.258583 0.513368 0.082500
0.225723 0.579604 0.082500
0.231624 0.683310 0.082500
0.226767 0.787870 0.082500
0.304971 0.889572 0.082500
0.497996 0.958928 0.082500
1.000000 0.978608 0.082500
0.000000 0.064001 0.082500
0.189476 0.074070 0.082500
0.343032 0.093639 0.082500
0.426218 0.120420 0.082500