# vtk DataFile Version 2.0
Mesh for Fierro
ASCII 
DATASET UNSTRUCTURED_GRID

POINTS 2205 float
0.000000 0.000000 0.000000
0.529203 0.000000 0.000000
0.899395 0.000000 0.000000
0.931065 0.000000 0.000000
0.941309 0.000000 0.000000
0.950889 0.000000 0.000000
0.958842 0.000000 0.000000
0.965763 0.000000 0.000000
0.971129 0.000000 0.000000
0.975601 0.000000 0.000000
0.979489 0.000000 0.000000
0.982591 0.000000 0.000000
0.984878 0.000000 0.000000
0.986520 0.000000 0.000000
0.987922 0.000000 0.000000
0.988887 0.000000 0.000000
0.989609 0.000000 0.000000
0.990811 0.000000 0.000000
0.993158 0.000000 0.000000
0.997487 0.000000 0.000000
1.000000 0.000000 0.000000
0.000000 0.002513 0.000000
0.584787 0.005168 0.000000
0.905058 0.039616 0.000000
0.904075 0.142742 0.000000
0.921854 0.174201 0.000000
0.931519 0.231302 0.000000
0.937345 0.290751 0.000000
0.939669 0.362662 0.000000
0.941119 0.433050 0.000000
0.943369 0.486082 0.000000
0.945771 0.537679 0.000000
0.948553 0.585466 0.000000
0.951879 0.624881 0.000000
0.956414 0.652200 0.000000
0.961244 0.672798 0.000000
0.966152 0.691471 0.000000
0.972189 0.696034 0.000000
0.979306 0.683129 0.000000
0.987543 0.642537 0.000000
0.994832 0.584787 0.000000
1.000000 0.529203 0.000000
0.000000 0.006842 0.000000
0.642537 0.012457 0.000000
0.896556 0.074448 0.000000
0.877067 0.199335 0.000000
0.910585 0.266921 0.000000
0.914053 0.400655 0.000000
0.911858 0.508629 0.000000
0.911301 0.590960 0.000000
0.903395 0.660142 0.000000
0.899021 0.702472 0.000000
0.888115 0.733984 0.000000
0.877519 0.752091 0.000000
0.877084 0.768688 0.000000
0.882032 0.787000 0.000000
0.887215 0.806034 0.000000
0.890362 0.824436 0.000000
0.894605 0.844571 0.000000
0.905273 0.870169 0.000000
0.925552 0.896556 0.000000
0.960384 0.905058 0.000000
1.000000 0.899395 0.000000
0.000000 0.009189 0.000000
0.683129 0.020694 0.000000
0.870169 0.094727 0.000000
0.876196 0.254359 0.000000
0.891240 0.400212 0.000000
0.884811 0.502246 0.000000
0.878638 0.583786 0.000000
0.856318 0.647185 0.000000
0.825703 0.691902 0.000000
0.797894 0.725858 0.000000
0.755780 0.759931 0.000000
0.717925 0.795093 0.000000
0.703264 0.818480 0.000000
0.701523 0.834585 0.000000
0.703976 0.847699 0.000000
0.709583 0.859902 0.000000
0.719483 0.870343 0.000000
0.745641 0.876196 0.000000
0.800665 0.877067 0.000000
0.857258 0.904075 0.000000
1.000000 0.931065 0.000000
0.000000 0.010391 0.000000
0.696034 0.027811 0.000000
0.844571 0.105395 0.000000
0.870343 0.280517 0.000000
0.854746 0.447463 0.000000
0.854560 0.522361 0.000000
0.836767 0.615146 0.000000
0.778283 0.679201 0.000000
0.731069 0.717752 0.000000
0.688995 0.746751 0.000000
0.653483 0.766646 0.000000
0.629362 0.775636 0.000000
0.602282 0.781417 0.000000
0.578498 0.792200 0.000000
0.561748 0.808609 0.000000
0.551071 0.828847 0.000000
0.552537 0.854746 0.000000
0.599788 0.891240 0.000000
0.733079 0.910585 0.000000
0.825799 0.921854 0.000000
1.000000 0.941309 0.000000
0.000000 0.011113 0.000000
0.691471 0.033848 0.000000
0.824436 0.109638 0.000000
0.859902 0.290417 0.000000
0.828847 0.448929 0.000000
0.824666 0.543414 0.000000
0.798806 0.625746 0.000000
0.730038 0.668117 0.000000
0.679814 0.700042 0.000000
0.630506 0.722211 0.000000
0.574116 0.731308 0.000000
0.522174 0.740855 0.000000
0.476420 0.753858 0.000000
0.454143 0.774791 0.000000
0.443794 0.797061 0.000000
0.456586 0.824666 0.000000
0.477639 0.854560 0.000000
0.497754 0.884811 0.000000
0.599345 0.914053 0.000000
0.768698 0.931519 0.000000
1.000000 0.950889 0.000000
0.000000 0.012078 0.000000
0.672798 0.038756 0.000000
0.806034 0.112785 0.000000
0.847699 0.296024 0.000000
0.808609 0.438252 0.000000
0.797061 0.556206 0.000000
0.751879 0.622010 0.000000
0.687159 0.648999 0.000000
0.629380 0.677809 0.000000
0.574261 0.690055 0.000000
0.521537 0.692943 0.000000
0.478380 0.702488 0.000000
0.439822 0.706513 0.000000
0.405521 0.725267 0.000000
0.377990 0.751879 0.000000
0.374254 0.798806 0.000000
0.384854 0.836767 0.000000
0.416214 0.878638 0.000000
0.491371 0.911858 0.000000
0.709249 0.937345 0.000000
1.000000 0.958842 0.000000
0.000000 0.013480 0.000000
0.652200 0.043586 0.000000
0.787000 0.117968 0.000000
0.834585 0.298477 0.000000
0.792200 0.421502 0.000000
0.774791 0.545857 0.000000
0.725267 0.594479 0.000000
0.661590 0.622654 0.000000
0.601646 0.642309 0.000000
0.548663 0.646973 0.000000
0.496353 0.645913 0.000000
0.450174 0.643491 0.000000
0.409419 0.645071 0.000000
0.377346 0.661590 0.000000
0.351001 0.687159 0.000000
0.331883 0.730038 0.000000
0.320799 0.778283 0.000000
0.352815 0.856318 0.000000
0.409040 0.911301 0.000000
0.637338 0.939669 0.000000
1.000000 0.965763 0.000000
0.000000 0.015122 0.000000
0.624881 0.048121 0.000000
0.768688 0.122916 0.000000
0.818480 0.296736 0.000000
0.781417 0.397718 0.000000
0.753858 0.523580 0.000000
0.706513 0.560178 0.000000
0.645071 0.590581 0.000000
0.586010 0.597428 0.000000
0.534656 0.601190 0.000000
0.488083 0.595364 0.000000
0.444843 0.590132 0.000000
0.402572 0.586010 0.000000
0.357691 0.601646 0.000000
0.322191 0.629380 0.000000
0.299958 0.679814 0.000000
0.282248 0.731069 0.000000
0.308098 0.825703 0.000000
0.339858 0.903395 0.000000
0.566950 0.941119 0.000000
1.000000 0.971129 0.000000
0.000000 0.017409 0.000000
0.585466 0.051447 0.000000
0.752091 0.122481 0.000000
0.795093 0.282075 0.000000
0.775636 0.370638 0.000000
0.740855 0.477826 0.000000
0.702488 0.521620 0.000000
0.643491 0.549826 0.000000
0.590132 0.555157 0.000000
0.538529 0.555518 0.000000
0.490522 0.546442 0.000000
0.444482 0.538529 0.000000
0.398810 0.534656 0.000000
0.353027 0.548663 0.000000
0.309945 0.574261 0.000000
0.277789 0.630506 0.000000
0.253249 0.688995 0.000000
0.274142 0.797894 0.000000
0.297528 0.899021 0.000000
0.513918 0.943369 0.000000
1.000000 0.975601 0.000000
0.000000 0.020511 0.000000
0.537679 0.054229 0.000000
0.733984 0.111885 0.000000
0.759931 0.244220 0.000000
0.766646 0.346517 0.000000
0.731308 0.425884 0.000000
0.692943 0.478463 0.000000
0.645913 0.503647 0.000000
0.595364 0.511917 0.000000
0.546442 0.509478 0.000000
0.500000 0.500000 0.000000
0.453558 0.490522 0.000000
0.404636 0.488083 0.000000
0.354087 0.496353 0.000000
0.307057 0.521537 0.000000
0.268692 0.574116 0.000000
0.233354 0.653483 0.000000
0.240069 0.755780 0.000000
0.266016 0.888115 0.000000
0.462321 0.945771 0.000000
1.000000 0.979489 0.000000
0.000000 0.024399 0.000000
0.486082 0.056631 0.000000
0.702472 0.100979 0.000000
0.725858 0.202106 0.000000
0.746751 0.311005 0.000000
0.722211 0.369494 0.000000
0.690055 0.425739 0.000000
0.646973 0.451337 0.000000
0.601190 0.465344 0.000000
0.555518 0.461471 0.000000
0.509478 0.453558 0.000000
0.461471 0.444482 0.000000
0.409868 0.444843 0.000000
0.356509 0.450174 0.000000
0.297512 0.478380 0.000000
0.259145 0.522174 0.000000
0.224364 0.629362 0.000000
0.204907 0.717925 0.000000
0.247909 0.877519 0.000000
0.414534 0.948553 0.000000
1.000000 0.982591 0.000000
0.000000 0.028871 0.000000
0.433050 0.058881 0.000000
0.660142 0.096605 0.000000
0.691902 0.174297 0.000000
0.717752 0.268931 0.000000
0.700042 0.320186 0.000000
0.677809 0.370620 0.000000
0.642309 0.398354 0.000000
0.597428 0.413990 0.000000
0.555157 0.409868 0.000000
0.511917 0.404636 0.000000
0.465344 0.398810 0.000000
0.413990 0.402572 0.000000
0.354929 0.409419 0.000000
0.293487 0.439822 0.000000
0.246142 0.476420 0.000000
0.218583 0.602282 0.000000
0.181520 0.703264 0.000000
0.231312 0.877084 0.000000
0.375119 0.951879 0.000000
1.000000 0.984878 0.000000
0.000000 0.034237 0.000000
0.362662 0.060331 0.000000
0.590960 0.088699 0.000000
0.647185 0.143682 0.000000
0.679201 0.221717 0.000000
0.668117 0.269962 0.000000
0.648999 0.312841 0.000000
0.622654 0.338410 0.000000
0.590581 0.354929 0.000000
0.549826 0.356509 0.000000
0.503647 0.354087 0.000000
0.451337 0.353027 0.000000
0.398354 0.357691 0.000000
0.338410 0.377346 0.000000
0.274733 0.405521 0.000000
0.225209 0.454143 0.000000
0.207800 0.578498 0.000000
0.165415 0.701523 0.000000
0.213000 0.882032 0.000000
0.347800 0.956414 0.000000
1.000000 0.986520 0.000000
0.000000 0.041158 0.000000
0.290751 0.062655 0.000000
0.508629 0.088142 0.000000
0.583786 0.121362 0.000000
0.615146 0.163233 0.000000
0.625746 0.201194 0.000000
0.622010 0.248121 0.000000
0.594479 0.274733 0.000000
0.560178 0.293487 0.000000
0.521620 0.297512 0.000000
0.478463 0.307057 0.000000
0.425739 0.309945 0.000000
0.370620 0.322191 0.000000
0.312841 0.351001 0.000000
0.248121 0.377990 0.000000
0.202939 0.443794 0.000000
0.191391 0.561748 0.000000
0.152301 0.703976 0.000000
0.193966 0.887215 0.000000
0.327202 0.961244 0.000000
1.000000 0.987922 0.000000
0.000000 0.049111 0.000000
0.231302 0.068481 0.000000
0.400655 0.085947 0.000000
0.502246 0.115189 0.000000
0.522361 0.145440 0.000000
0.543414 0.175334 0.000000
0.556206 0.202939 0.000000
0.545857 0.225209 0.000000
0.523580 0.246142 0.000000
0.477826 0.259145 0.000000
0.425884 0.268692 0.000000
0.369494 0.277789 0.000000
0.320186 0.299958 0.000000
0.269962 0.331883 0.000000
0.201194 0.374254 0.000000
0.175334 0.456586 0.000000
0.171153 0.551071 0.000000
0.140098 0.709583 0.000000
0.175564 0.890362 0.000000
0.308529 0.966152 0.000000
1.000000 0.988887 0.000000
0.000000 0.058691 0.000000
0.174201 0.078146 0.000000
0.266921 0.089415 0.000000
0.400212 0.108760 0.000000
0.447463 0.145254 0.000000
0.448929 0.171153 0.000000
0.438252 0.191391 0.000000
0.421502 0.207800 0.000000
0.397718 0.218583 0.000000
0.370638 0.224364 0.000000
0.346517 0.233354 0.000000
0.311005 0.253249 0.000000
0.268931 0.282248 0.000000
0.221717 0.320799 0.000000
0.163233 0.384854 0.000000
0.145440 0.477639 0.000000
0.145254 0.552537 0.000000
0.129657 0.719483 0.000000
0.155429 0.894605 0.000000
0.303966 0.972189 0.000000
1.000000 0.989609 0.000000
0.000000 0.068935 0.000000
0.142742 0.095925 0.000000
0.199335 0.122933 0.000000
0.254359 0.123804 0.000000
0.280517 0.129657 0.000000
0.290417 0.140098 0.000000
0.296024 0.152301 0.000000
0.298477 0.165415 0.000000
0.296736 0.181520 0.000000
[...]
POINT_DATA 2205 
VECTORS pos float 
0.000000 0.000000 0.000000
0.529203 0.000000 0.000000
0.899395 0.000000 0.000000
0.931065 0.000000 0.000000
0.941309 0.000000 0.000000
0.950889 0.000000 0.000000
0.958842 0.000000 0.000000
0.965763 0.000000 0.000000
0.971129 0.000000 0.000000
0.975601 0.000000 0.000000
0.979489 0.000000 0.000000
0.982591 0.000000 0.000000
0.984878 0.000000 0.000000
0.986520 0.000000 0.000000
0.987922 0.000000 0.000000
0.988887 0.000000 0.000000
0.989609 0.000000 0.000000
0.990811 0.000000 0.000000
0.993158 0.000000 0.000000
0.997487 0.000000 0.000000
1.000000 0.000000 0.000000
0.000000 0.002513 0.000000
0.584787 0.005168 0.000000
0.905058 0.039616 0.000000
0.904075 0.142742 0.000000
0.921854 0.174201 0.000000
0.931519 0.231302 0.000000
0.937345 0.290751 0.000000
0.939669 0.362662 0.000000
0.941119 0.433050 0.000000
0.943369 0.486082 0.000000
0.945771 0.537679 0.000000
0.948553 0.585466 0.000000
0.951879 0.624881 0.000000
0.956414 0.652200 0.000000
0.961244 0.672798 0.000000
0.966152 0.691471 0.000000
0.972189 0.696034 0.000000
0.979306 0.683129 0.000000
0.987543 0.642537 0.000000
0.994832 0.584787 0.000000
1.000000 0.529203 0.000000
0.000000 0.006842 0.000000
0.642537 0.012457 0.000000
0.896556 0.074448 0.000000
0.877067 0.199335 0.000000
0.910585 0.266921 0.000000
0.914053 0.400655 0.000000
0.911858 0.508629 0.000000
0.911301 0.590960 0.000000
0.903395 0.660142 0.000000
0.899021 0.702472 0.000000
0.888115 0.733984 0.000000
0.877519 0.752091 0.000000
0.877084 0.768688 0.000000
0.882032 0.787000 0.000000
0.887215 0.806034 0.000000
0.890362 0.824436 0.000000
0.894605 0.844571 0.000000
0.905273 0.870169 0.000000
0.925552 0.896556 0.000000
0.960384 0.905058 0.000000
1.000000 0.899395 0.000000
0.000000 0.009189 0.000000
0.683129 0.020694 0.000000
0.870169 0.094727 0.000000
0.876196 0.254359 0.000000
0.891240 0.400212 0.000000
0.884811 0.502246 0.000000
0.878638 0.583786 0.000000
0.856318 0.647185 0.000000
0.825703 0.691902 0.000000
0.797894 0.725858 0.000000
0.755780 0.759931 0.000000
0.717925 0.795093 0.000000
0.703264 0.818480 0.000000
0.701523 0.834585 0.000000
0.703976 0.847699 0.000000
0.709583 0.859902 0.000000
0.719483 0.870343 0.000000
0.745641 0.876196 0.000000
0.800665 0.877067 0.000000
0.857258 0.904075 0.000000
1.000000 0.931065 0.000000
0.000000 0.010391 0.000000
0.696034 0.027811 0.000000
0.844571 0.105395 0.000000
0.870343 0.280517 0.000000
0.854746 0.447463 0.000000
0.854560 0.522361 0.000000
0.836767 0.615146 0.000000
0.778283 0.679201 0.000000
0.731069 0.717752 0.000000
0.688995 0.746751 0.000000
0.653483 0.766646 0.000000
0.629362 0.775636 0.000000
0.602282 0.781417 0.000000
0.578498 0.792200 0.000000
0.561748 0.808609 0.000000
0.551071 0.828847 0.000000
0.552537 0.854746 0.000000
0.599788 0.891240 0.000000
0.733079 0.910585 0.000000
0.825799 0.921854 0.000000
1.000000 0.941309 0.000000
0.000000 0.011113 0.000000
0.691471 0.033848 0.000000
0.824436 0.109638 0.000000
0.859902 0.290417 0.000000
0.828847 0.448929 0.000000
0.824666 0.543414 0.000000
0.798806 0.625746 0.000000
0.730038 0.668117 0.000000
0.679814 0.700042 0.000000
0.630506 0.722211 0.000000
0.574116 0.731308 0.000000
0.522174 0.740855 0.000000
0.476420 0.753858 0.000000
0.454143 0.774791 0.000000
0.443794 0.797061 0.000000
0.456586 0.824666 0.000000
0.477639 0.854560 0.000000
0.497754 0.884811 0.000000
0.599345 0.914053 0.000000
0.768698 0.931519 0.000000
1.000000 0.950889 0.000000
0.000000 0.012078 0.000000
0.672798 0.038756 0.000000
0.806034 0.112785 0.000000
0.847699 0.296024 0.000000
0.808609 0.438252 0.000000
0.797061 0.556206 0.000000
0.751879 0.622010 0.000000
0.687159 0.648999 0.000000
0.629380 0.677809 0.000000
0.574261 0.690055 0.000000
0.521537 0.692943 0.000000
0.478380 0.702488 0.000000
0.439822 0.706513 0.000000
0.405521 0.725267 0.000000
0.377990 0.751879 0.000000
0.374254 0.798806 0.000000
0.384854 0.836767 0.000000
0.416214 0.878638 0.000000
0.491371 0.911858 0.000000
0.709249 0.937345 0.000000
1.000000 0.958842 0.000000
0.000000 0.013480 0.000000
0.652200 0.043586 0.000000
0.787000 0.117968 0.000000
0.834585 0.298477 0.000000
0.792200 0.421502 0.000000
0.774791 0.545857 0.000000
0.725267 0.594479 0.000000
0.661590 0.622654 0.000000
0.601646 0.642309 0.000000
0.548663 0.646973 0.000000
0.496353 0.645913 0.000000
0.450174 0.643491 0.000000
0.409419 0.645071 0.000000
0.377346 0.661590 0.000000
0.351001 0.687159 0.000000
0.331883 0.730038 0.000000
0.320799 0.778283 0.000000
0.352815 0.856318 0.000000
0.409040 0.911301 0.000000
0.637338 0.939669 0.000000
1.000000 0.965763 0.000000
0.000000 0.015122 0.000000
0.624881 0.048121 0.000000
0.768688 0.122916 0.000000
0.818480 0.296736 0.000000
0.781417 0.397718 0.000000
0.753858 0.523580 0.000000
0.706513 0.560178 0.000000
0.645071 0.590581 0.000000
0.586010 0.597428 0.000000
0.534656 0.601190 0.000000
0.488083 0.595364 0.000000
0.444843 0.590132 0.000000
0.402572 0.586010 0.000000
0.357691 0.601646 0.000000
0.322191 0.629380 0.000000
0.299958 0.679814 0.000000
0.282248 0.731069 0.000000
0.308098 0.825703 0.000000
0.339858 0.903395 0.000000
0.566950 0.941119 0.000000
1.000000 0.971129 0.000000
0.000000 0.017409 0.000000
0.585466 0.051447 0.000000
0.752091 0.122481 0.000000
0.795093 0.282075 0.000000
0.775636 0.370638 0.000000
0.740855 0.477826 0.000000
0.702488 0.521620 0.000000
0.643491 0.549826 0.000000
0.590132 0.555157 0.000000
0.538529 0.555518 0.000000
0.490522 0.546442 0.000000
0.444482 0.538529 0.000000
0.398810 0.534656 0.000000
0.353027 0.548663 0.000000
0.309945 0.574261 0.000000
0.277789 0.630506 0.000000
0.253249 0.688995 0.000000
0.274142 0.797894 0.000000
0.297528 0.899021 0.000000
0.513918 0.943369 0.000000
1.000000 0.975601 0.000000
0.000000 0.020511 0.000000
0.537679 0.054229 0.000000
0.733984 0.111885 0.000000
0.759931 0.244220 0.000000
0.766646 0.346517 0.000000
0.731308 0.425884 0.000000
0.692943 0.478463 0.000000
0.645913 0.503647 0.000000
0.595364 0.511917 0.000000
0.546442 0.509478 0.000000
0.500000 0.500000 0.000000
0.453558 0.490522 0.000000
0.404636 0.488083 0.000000
0.354087 0.496353 0.000000
0.307057 0.521537 0.000000
0.268692 0.574116 0.000000
0.233354 0.653483 0.000000
0.240069 0.755780 0.000000
0.266016 0.888115 0.000000
0.462321 0.945771 0.000000
1.000000 0.979489 0.000000
0.000000 0.024399 0.000000
0.486082 0.056631 0.000000
0.702472 0.100979 0.000000
0.725858 0.202106 0.000000
0.746751 0.311005 0.000000
0.722211 0.369494 0.000000
0.690055 0.425739 0.000000
0.646973 0.451337 0.000000
0.601190 0.465344 0.000000
0.555518 0.461471 0.000000
0.509478 0.453558 0.000000
0.461471 0.444482 0.000000
0.409868 0.444843 0.000000
0.356509 0.450174 0.000000
0.297512 0.478380 0.000000
0.259145 0.522174 0.000000
0.224364 0.629362 0.000000
0.204907 0.717925 0.000000
0.247909 0.877519 0.000000
0.414534 0.948553 0.000000
1.000000 0.982591 0.000000
0.000000 0.028871 0.000000
0.433050 0.058881 0.000000
0.660142 0.096605 0.000000
0.691902 0.174297 0.000000
0.717752 0.268931 0.000000
0.700042 0.320186 0.000000
0.677809 0.370620 0.000000
0.642309 0.398354 0.000000
0.597428 0.413990 0.000000
0.555157 0.409868 0.000000
0.511917 0.404636 0.000000
0.465344 0.398810 0.000000
0.413990 0.402572 0.000000
0.354929 0.409419 0.000000
0.293487 0.439822 0.000000
0.246142 0.476420 0.000000
0.218583 0.602282 0.000000
0.181520 0.703264 0.000000
0.231312 0.877084 0.000000
0.375119 0.951879 0.000000
1.000000 0.984878 0.000000
0.000000 0.034237 0.000000
0.362662 0.060331 0.000000
0.590960 0.088699 0.000000
0.647185 0.143682 0.000000
0.679201 0.221717 0.000000
0.668117 0.269962 0.000000
0.648999 0.312841 0.000000
0.622654 0.338410 0.000000
0.590581 0.354929 0.000000
0.549826 0.356509 0.000000
0.503647 0.354087 0.000000
0.451337 0.353027 0.000000
0.398354 0.357691 0.000000
0.338410 0.377346 0.000000
0.274733 0.405521 0.000000
0.225209 0.454143 0.000000
0.207800 0.578498 0.000000
0.165415 0.701523 0.000000
0.213000 0.882032 0.000000
0.347800 0.956414 0.000000
1.000000 0.986520 0.000000
0.000000 0.041158 0.000000
0.290751 0.062655 0.000000
0.508629 0.088142 0.000000
0.583786 0.121362 0.000000
0.615146 0.163233 0.000000
0.625746 0.201194 0.000000
0.622010 0.248121 0.000000
0.594479 0.274733 0.000000
0.560178 0.293487 0.000000
0.521620 0.297512 0.000000
0.478463 0.307057 0.000000
0.425739 0.309945 0.000000
0.370620 0.322191 0.000000
0.312841 0.351001 0.000000
0.248121 0.377990 0.000000
0.202939 0.443794 0.000000
0.191391 0.561748 0.000000
0.152301 0.703976 0.000000
0.193966 0.887215 0.000000
0.327202 0.961244 0.000000
1.000000 0.987922 0.000000
0.000000 0.049111 0.000000
0.231302 0.068481 0.000000
0.400655 0.085947 0.000000
0.502246 0.115189 0.000000
0.522361 0.145440 0.000000
0.543414 0.175334 0.000000
0.556206 0.202939 0.000000
0.545857 0.225209 0.000000
0.523580 0.246142 0.000000
0.477826 0.259145 0.000000
0.425884 0.268692 0.000000
0.369494 0.277789 0.000000
0.320186 0.299958 0.000000
0.269962 0.331883 0.000000
0.201194 0.374254 0.000000
0.175334 0.456586 0.000000
0.171153 0.551071 0.000000
0.140098 0.709583 0.000000
0.175564 0.890362 0.000000
0.308529 0.966152 0.000000
1.000000 0.988887 0.000000
0.000000 0.058691 0.000000
0.174201 0.078146 0.000000
0.266921 0.089415 0.000000
0.400212 0.108760 0.000000
0.447463 0.145254 0.000000
0.448929 0.171153 0.000000
0.438252 0.191391 0.000000
0.421502 0.207800 0.000000
0.397718 0.218583 0.000000
0.370638 0.224364 0.000000
0.346517 0.233354 0.000000
0.311005 0.253249 0.000000
0.268931 0.282248 0.000000
0.221717 0.320799 0.000000
0.163233 0.384854 0.000000
0.145440 0.477639 0.000000
0.145254 0.552537 0.000000
0.129657 0.719483 0.000000
0.155429 0.894605 0.000000
0.303966 0.972189 0.000000
1.000000 0.989609 0.000000
0.000000 0.068935 0.000000
0.142742 0.095925 0.000000
0.199335 0.122933 0.000000
0.254359 0.123804 0.000000
0.280517 0.129657 0.000000
0.290417 0.140098 0.000000
0.296024 0.152301 0.000000
0.298477 0.165415 0.000000
0.296736 0.181520 0.000000
0.282075 0.204907 0.000000
0.244220 0.240069 0.000000
0.202106 0.274142 0.000000
0.174297 0.308098 0.000000
0.143682 0.352815 0.000000
0.121362 0.416214 0.000000
0.115189 0.497754 0.000000
0.108760 0.599788 0.000000
0.123804 0.745641 0.000000
0.129831 0.905273 0.000000
0.316871 0.979306 0.000000
1.000000 0.990811 0.000000
0.000000 0.100605 0.000000
0.039616 0.094942 0.000000
0.074448 0.103444 0.000000
0.094727 0.129831 0.000000
0.105395 0.155429 0.000000
0.109638 0.175564 0.000000
0.112785 0.193966 0.000000
0.117968 0.213000 0.000000
0.122916 0.231312 0.000000
0.122481 0.247909 0.000000
0.111885 0.266016 0.000000
0.100979 0.297528 0.000000
0.096605 0.339858 0.000000
0.088699 0.409040 0.000000
0.088142 0.491371 0.000000
0.085947 0.599345 0.000000
0.089415 0.733079 0.000000
0.122933 0.800665 0.000000
0.103444 0.925552 0.000000
0.357463 0.987543 0.000000
1.000000 0.993158 0.000000
0.000000 0.470797 0.000000
0.005168 0.415213 0.000000
0.012457 0.357463 0.000000
0.020694 0.316871 0.000000
0.027811 0.303966 0.000000
0.033848 0.308529 0.000000
0.038756 0.327202 0.000000
0.043586 0.347800 0.000000
0.048121 0.375119 0.000000
0.051447 0.414534 0.000000
0.054229 0.462321 0.000000
0.056631 0.513918 0.000000
0.058881 0.566950 0.000000
0.060331 0.637338 0.000000
0.062655 0.709249 0.000000
0.068481 0.768698 0.000000
0.078146 0.825799 0.000000
0.095925 0.857258 0.000000
0.094942 0.960384 0.000000
0.415213 0.994832 0.000000
1.000000 0.997487 0.000000
0.000000 1.000000 0.000000
0.002513 1.000000 0.000000
0.006842 1.000000 0.000000
0.009189 1.000000 0.000000
0.010391 1.000000 0.000000
0.011113 1.000000 0.000000
0.012078 1.000000 0.000000
0.013480 1.000000 0.000000
0.015122 1.000000 0.000000
0.017409 1.000000 0.000000
0.020511 1.000000 0.000000
0.024399 1.000000 0.000000
0.028871 1.000000 0.000000
0.034237 1.000000 0.000000
0.041158 1.000000 0.000000
0.049111 1.000000 0.000000
0.058691 1.000000 0.000000
0.068935 1.000000 0.000000
0.100605 1.000000 0.000000
0.470797 1.000000 0.000000
1.000000 1.000000 0.000000
0.000000 0.000000 0.082500
0.529203 0.000000 0.082500
0.899395 0.000000 0.082500
0.931065 0.000000 0.082500
0.941309 0.000000 0.082500
0.950889 0.000000 0.082500
0.958842 0.000000 0.082500
0.965763 0.000000 0.082500
0.971129 0.000000 0.082500
0.975601 0.000000 0.082500
0.979489 0.000000 0.082500
0.982591 0.000000 0.082500
0.984878 0.000000 0.082500
0.986520 0.000000 0.082500
0.987922 0.000000 0.082500
0.988887 0.000000 0.082500
0.989609 0.000000 0.082500
0.990811 0.000000 0.082500
0.993158 0.000000 0.082500
0.997487 0.000000 0.082500
1.000000 0.000000 0.082500
0.000000 0.002513 0.082500
0.584787 0.005168 0.082500
0.905058 0.039616 0.082500
0.904075 0.142742 0.082500
0.921854 0.174201 0.082500
0.931519 0.231302 0.082500
0.937345 0.290751 0.082500
0.939669 0.362662 0.082500
0.941119 0.433050 0.082500
0.943369 0.486082 0.082500
0.945771 0.537679 0.082500
0.948553 0.585466 0.082500
0.951879 0.624881 0.082500
0.956414 0.652200 0.082500
0.961244 0.672798 0.082500
0.966152 0.691471 0.082500
0.972189 0.696034 0.082500
0.979306 0.683129 0.082500
0.987543 0.642537 0.082500
0.994832 0.584787 0.082500
1.000000 0.529203 0.082500
0.000000 0.006842 0.082500
0.642537 0.012457 0.082500
0.896556 0.074448 0.082500
0.877067 0.199335 0.082500
0.910585 0.266921 0.082500
0.914053 0.400655 0.082500
0.911858 0.508629 0.082500
0.911301 0.590960 0.082500
0.903395 0.660142 0.082500
0.899021 0.702472 0.082500
0.888115 0.733984 0.082500
0.877519 0.752091 0.082500
0.877084 0.768688 0.082500
0.882032 0.787000 0.082500
0.887215 0.806034 0.082500
0.890362 0.824436 0.082500
0.894605 0.844571 0.082500
0.905273 0.870169 0.082500
0.925552 0.896556 0.082500
0.960384 0.905058 0.082500
1.000000 0.899395 0.082500
0.000000 0.009189 0.082500
0.683129 0.020694 0.082500
0.870169 0.094727 0.082500
0.876196 0.254359 0.082500
0.891240 0.400212 0.082500
0.884811 0.502246 0.082500
0.878638 0.583786 0.082500
0.856318 0.647185 0.082500
0.825703 0.691902 0.082500
0.797894 0.725858 0.082500
0.755780 0.759931 0.082500
0.717925 0.795093 0.082500
0.703264 0.818480 0.082500
0.701523 0.834585 0.082500
0.703976 0.847699 0.082500
0.709583 0.859902 0.082500
0.719483 0.870343 0.082500
0.745641 0.876196 0.082500
0.800665 0.877067 0.082500
0.857258 0.904075 0.082500
1.000000 0.931065 0.082500
0.000000 0.010391 0.082500
0.696034 0.027811 0.082500
0.844571 0.105395 0.082500
0.870343 0.280517 0.082500
0.854746 0.447463 0.082500
0.854560 0.522361 0.082500
0.836767 0.615146 0.082500
0.778283 0.679201 0.082500
0.731069 0.717752 0.082500
0.688995 0.746751 0.082500
0.653483 0.766646 0.082500
0.629362 0.775636 0.082500
0.602282 0.781417 0.082500
0.578498 0.792200 0.082500
0.561748 0.808609 0.082500
0.551071 0.828847 0.082500
0.552537 0.854746 0.082500
0.599788 0.891240 0.082500
0.733079 0.910585 0.082500
0.825799 0.921854 0.082500
1.000000 0.941309 0.082500
0.000000 0.011113 0.082500
0.691471 0.033848 0.082500
0.824436 0.109638 0.082500
0.859902 0.290417 0.082500
0.828847 0.448929 0.082500
0.824666 0.543414 0.082500
0.798806 0.625746 0.082500
0.730038 0.668117 0.082500
0.679814 0.700042 0.082500
0.630506 0.722211 0.082500
0.574116 0.731308 0.082500
0.522174 0.740855 0.082500
0.476420 0.753858 0.082500
0.454143 0.774791 0.082500
0.443794 0.797061 0.082500
0.456586 0.824666 0.082500
0.477639 0.854560 0.082500
0.497754 0.884811 0.082500
0.599345 0.914053 0.082500
0.768698 0.931519 0.082500
1.000000 0.950889 0.082500
0.000000 0.012078 0.082500
0.672798 0.038756 0.082500
0.806034 0.112785 0.082500
0.847699 0.296024 0.082500
0.808609 0.438252 0.082500
0.797061 0.556206 0.082500
0.751879 0.622010 0.082500
0.687159 0.648999 0.082500
0.629380 0.677809 0.082500
0.574261 0.690055 0.082500
0.521537 0.692943 0.082500
0.478380 0.702488 0.082500
0.439822 0.706513 0.082500
0.405521 0.725267 0.082500
0.377990 0.751879 0.082500
0.374254 0.798806 0.082500
0.384854 0.836767 0.082500
0.416214 0.878638 0.082500
0.491371 0.911858 0.082500
0.709249 0.937345 0.082500
1.000000 0.958842 0.082500
0.000000 0.013480 0.082500
0.652200 0.043586 0.082500
0.787000 0.117968 0.082500
0.834585 0.298477 0.082500
0.792200 0.421502 0.082500
0.774791 0.545857 0.082500
0.725267 0.594479 0.082500
0.661590 0.622654 0.082500
0.601646 0.642309 0.082500
0.548663 0.646973 0.082500
0.496353 0.645913 0.082500
0.450174 0.643491 0.082500
0.409419 0.645071 0.082500
0.377346 0.661590 0.082500
0.351001 0.687159 0.082500
0.331883 0.730038 0.082500
0.320799 0.778283 0.082500
0.352815 0.856318 0.082500
0.409040 0.911301 0.082500
0.637338 0.939669 0.082500
1.000000 0.965763 0.082500
0.000000 0.015122 0.082500
0.624881 0.048121 0.082500
0.768688 0.122916 0.082500
0.818480 0.296736 0.082500
0.781417 0.397718 0.082500
0.753858 0.523580 0.082500
0.706513 0.560178 0.082500
0.645071 0.590581 0.082500
0.586010 0.597428 0.082500
0.534656 0.601190 0.082500
0.488083 0.595364 0.082500
0.444843 0.590132 0.082500
0.402572 0.586010 0.082500
0.357691 0.601646 0.082500
0.322191 0.629380 0.082500
0.299958 0.679814 0.082500
0.282248 0.731069 0.082500
0.308098 0.825703 0.082500
0.339858 0.903395 0.082500
0.566950 0.941119 0.082500
1.000000 0.971129 0.082500
0.000000 0.017409 0.082500
0.585466 0.051447 0.082500
0.752091 0.122481 0.082500
0.795093 0.282075 0.082500
0.775636 0.370638 0.082500
0.740855 0.477826 0.082500
0.702488 0.521620 0.082500
0.643491 0.549826 0.082500
0.590132 0.555157 0.082500
0.538529 0.555518 0.082500
0.490522 0.546442 0.082500
0.444482 0.538529 0.082500
0.398810 0.534656 0.082500
0.353027 0.548663 0.082500
0.309945 0.574261 0.082500
0.277789 0.630506 0.082500
0.253249 0.688995 0.082500
0.274142 0.797894 0.082500
0.297528 0.899021 0.082500
0.513918 0.943369 0.082500
1.000000 0.975601 0.082500
0.000000 0.020511 0.082500
0.537679 0.054229 0.082500
0.733984 0.111885 0.082500
0.759931 0.244220 0.082500
0.766646 0.346517 0.082500
0.731308 0.425884 0.082500
0.692943 0.478463 0.082500
0.645913 0.503647 0.082500
0.595364 0.511917 0.082500
0.546442 0.509478 0.082500
0.500000 0.500000 0.082500
0.453558 0.490522 0.082500
0.404636 0.488083 0.082500
0.354087 0.496353 0.082500
0.307057 0.521537 0.082500
0.268692 0.574116 0.082500
0.233354 0.653483 0.082500
0.240069 0.755780 0.082500
0.266016 0.888115 0.082500
0.462321 0.945771 0.082500
1.000000 0.979489 0.082500
0.000000 0.024399 0.082500
0.486082 0.056631 0.082500
0.702472 0.100979 0.082500
0.725858 0.202106 0.082500
0.746751 0.311005 0.082500
0.722211 0.369494 0.082500
0.690055 0.425739 0.082500
0.646973 0.451337 0.082500
0.601190 0.465344 0.082500
0.555518 0.461471 0.082500
0.509478 0.453558 0.082500
0.461471 0.444482 0.082500
0.409868 0.444843 0.082500
0.356509 0.450174 0.082500
0.297512 0.478380 0.082500
0.259145 0.522174 0.082500
0.224364 0.629362 0.082500
0.204907 0.717925 0.082500
0.247909 0.877519 0.082500
0.414534 0.948553 0.082500
1.000000 0.982591 0.082500
0.000000 0.028871 0.082500
0.433050 0.058881 0.082500
0.660142 0.096605 0.082500
0.691902 0.174297 0.082500
0.717752 0.268931 0.082500
0.700042 0.320186 0.082500
0.677809 0.370620 0.082500
0.642309 0.398354 0.082500
0.597428 0.413990 0.082500
0.555157 0.409868 0.082500
0.511917 0.404636 0.082500
0.465344 0.398810 0.082500
0.413990 0.402572 0.082500
0.354929 0.409419 0.082500
0.293487 0.439822 0.082500
0.246142 0.476420 0.082500
0.218583 0.602282 0.082500
0.181520 0.703264 0.082500
0.231312 0.877084 0.082500
0.375119 0.951879 0.082500
1.000000 0.984878 0.082500
0.000000 0.034237 0.082500
0.362662 0.060331 0.082500
0.590960 0.088699 0.082500
0.647185 0.143682 0.082500
0.679201 0.221717 0.082500
0.668117 0.269962 0.082500
0.648999 0.312841 0.082500
0.622654 0.338410 0.082500
0.590581 0.354929 0.082500
0.549826 0.356509 0.082500
0.503647 0.354087 0.082500
0.451337 0.353027 0.082500
0.398354 0.357691 0.082500
0.338410 0.377346 0.082500
0.274733 0.405521 0.082500
0.225209 0.454143 0.082500
0.207800 0.578498 0.082500
0.165415 0.701523 0.082500
0.213000 0.882032 0.082500
0.347800 0.956414 0.082500
1.000000 0.986520 0.082500
0.000000 0.041158 0.082500
0.290751 0.062655 0.082500
0.508629 0.088142 0.082500
0.583786 0.121362 0.082500