# vtk DataFile Version 2.0
Mesh for Fierro
ASCII 
DATASET UNSTRUCTURED_GRID

POINTS 2205 float
0.000000 0.000000 0.000000
0.475472 0.000000 0.000000
0.706684 0.000000 0.000000
0.788118 0.000000 0.000000
0.842000 0.000000 0.000000
0.871884 0.000000 0.000000
0.895126 0.000000 0.000000
0.912707 0.000000 0.000000
0.925961 0.000000 0.000000
0.936963 0.000000 0.000000
0.946007 0.000000 0.000000
0.953528 0.000000 0.000000
0.960056 0.000000 0.000000
0.965837 0.000000 0.000000
0.971038 0.000000 0.000000
0.975947 0.000000 0.000000
0.980603 0.000000 0.000000
0.985221 0.000000 0.000000
0.990011 0.000000 0.000000
0.994948 0.000000 0.000000
1.000000 0.000000 0.000000
0.000000 0.005052 0.000000
0.472937 0.007147 0.000000
0.701970 0.020782 0.000000
0.785347 0.036316 0.000000
0.839015 0.068174 0.000000
0.868857 0.097185 0.000000
0.891542 0.126906 0.000000
0.907427 0.164921 0.000000
0.919124 0.205141 0.000000
0.928455 0.243283 0.000000
0.936370 0.279415 0.000000
0.943175 0.314659 0.000000
0.949132 0.349474 0.000000
0.954930 0.379423 0.000000
0.960651 0.404707 0.000000
0.966584 0.426307 0.000000
0.972740 0.442622 0.000000
0.979210 0.455664 0.000000
0.985874 0.465874 0.000000
0.992853 0.472937 0.000000
1.000000 0.475472 0.000000
0.000000 0.009989 0.000000
0.465874 0.014126 0.000000
0.693095 0.039961 0.000000
0.779627 0.069706 0.000000
0.828255 0.126811 0.000000
0.859000 0.177771 0.000000
0.879837 0.238648 0.000000
0.891585 0.303527 0.000000
0.898116 0.367425 0.000000
0.902199 0.422120 0.000000
0.904676 0.471787 0.000000
0.905773 0.516809 0.000000
0.905867 0.557332 0.000000
0.907656 0.591305 0.000000
0.911869 0.619587 0.000000
0.918920 0.644003 0.000000
0.929442 0.663533 0.000000
0.943509 0.679840 0.000000
0.960039 0.693095 0.000000
0.979218 0.701970 0.000000
1.000000 0.706684 0.000000
0.000000 0.014779 0.000000
0.455664 0.020790 0.000000
0.679840 0.056491 0.000000
0.768015 0.098475 0.000000
0.811235 0.173606 0.000000
0.842192 0.236623 0.000000
0.855779 0.313976 0.000000
0.860123 0.386240 0.000000
0.856850 0.455944 0.000000
0.853971 0.511570 0.000000
0.848115 0.563352 0.000000
0.842325 0.608603 0.000000
0.837299 0.649534 0.000000
0.838099 0.684183 0.000000
0.844364 0.713184 0.000000
0.857005 0.736797 0.000000
0.875561 0.754975 0.000000
0.901525 0.768015 0.000000
0.930294 0.779627 0.000000
0.963684 0.785347 0.000000
1.000000 0.788118 0.000000
0.000000 0.019397 0.000000
0.442622 0.027260 0.000000
0.663533 0.070558 0.000000
0.754975 0.124439 0.000000
0.791430 0.211735 0.000000
0.821582 0.284864 0.000000
0.824010 0.373897 0.000000
0.821042 0.446445 0.000000
0.807183 0.516395 0.000000
0.796553 0.570636 0.000000
0.781402 0.619001 0.000000
0.768993 0.658510 0.000000
0.757573 0.691486 0.000000
0.753892 0.719624 0.000000
0.756521 0.744935 0.000000
0.767937 0.768849 0.000000
0.788265 0.791430 0.000000
0.826394 0.811235 0.000000
0.873189 0.828255 0.000000
0.931826 0.839015 0.000000
1.000000 0.842000 0.000000
0.000000 0.024053 0.000000
0.426307 0.033416 0.000000
0.644003 0.081080 0.000000
0.736797 0.142995 0.000000
0.768849 0.232063 0.000000
0.796562 0.311884 0.000000
0.790872 0.396538 0.000000
0.781993 0.467882 0.000000
0.761339 0.531595 0.000000
0.743231 0.583327 0.000000
0.720742 0.628430 0.000000
0.698799 0.667835 0.000000
0.678693 0.703349 0.000000
0.670174 0.737265 0.000000
0.672459 0.768237 0.000000
0.688116 0.796562 0.000000
0.715136 0.821582 0.000000
0.763377 0.842192 0.000000
0.822229 0.859000 0.000000
0.902815 0.868857 0.000000
1.000000 0.871884 0.000000
0.000000 0.028962 0.000000
0.404707 0.039349 0.000000
0.619587 0.088131 0.000000
0.713184 0.155636 0.000000
0.744935 0.243479 0.000000
0.768237 0.327541 0.000000
0.756391 0.406395 0.000000
0.742030 0.475928 0.000000
0.714741 0.534322 0.000000
0.690897 0.582870 0.000000
0.661915 0.623803 0.000000
0.635692 0.659315 0.000000
0.611701 0.690820 0.000000
0.598217 0.723663 0.000000
0.593605 0.756391 0.000000
0.603462 0.790872 0.000000
0.626103 0.824010 0.000000
0.686024 0.855779 0.000000
0.761352 0.879837 0.000000
0.873094 0.891542 0.000000
1.000000 0.895126 0.000000
0.000000 0.034163 0.000000
0.379423 0.045070 0.000000
0.591305 0.092344 0.000000
0.684183 0.161901 0.000000
0.719624 0.246108 0.000000
0.737265 0.329826 0.000000
0.723663 0.401783 0.000000
0.704448 0.468357 0.000000
0.673679 0.520955 0.000000
0.644933 0.566179 0.000000
0.611488 0.602952 0.000000
0.579477 0.636376 0.000000
0.549705 0.667867 0.000000
0.531643 0.704448 0.000000
0.524072 0.742030 0.000000
0.532118 0.781993 0.000000
0.553555 0.821042 0.000000
0.613760 0.860123 0.000000
0.696473 0.891585 0.000000
0.835079 0.907427 0.000000
1.000000 0.912707 0.000000
0.000000 0.039944 0.000000
0.349474 0.050868 0.000000
0.557332 0.094133 0.000000
0.649534 0.162701 0.000000
0.691486 0.242427 0.000000
0.703349 0.321307 0.000000
0.690820 0.388299 0.000000
0.667867 0.450295 0.000000
0.634822 0.499291 0.000000
0.602088 0.540821 0.000000
0.565490 0.573512 0.000000
0.532144 0.604693 0.000000
0.500709 0.634822 0.000000
0.479045 0.673679 0.000000
0.465678 0.714741 0.000000
0.468405 0.761339 0.000000
0.483605 0.807183 0.000000
0.544056 0.856850 0.000000
0.632575 0.898116 0.000000
0.794859 0.919124 0.000000
1.000000 0.925961 0.000000
0.000000 0.046472 0.000000
0.314659 0.056825 0.000000
0.516809 0.094227 0.000000
0.608603 0.157675 0.000000
0.658510 0.231007 0.000000
0.667835 0.301201 0.000000
0.659315 0.364308 0.000000
0.636376 0.420523 0.000000
0.604693 0.467856 0.000000
0.569421 0.506355 0.000000
0.530919 0.537968 0.000000
0.493645 0.569421 0.000000
0.459179 0.602088 0.000000
0.433821 0.644933 0.000000
0.417130 0.690897 0.000000
0.416673 0.743231 0.000000
0.429364 0.796553 0.000000
0.488430 0.853971 0.000000
0.577880 0.902199 0.000000
0.756717 0.928455 0.000000
1.000000 0.936963 0.000000
0.000000 0.053993 0.000000
0.279415 0.063630 0.000000
0.471787 0.095324 0.000000
0.563352 0.151885 0.000000
0.619001 0.218598 0.000000
0.628430 0.279258 0.000000
0.623803 0.338085 0.000000
0.602952 0.388512 0.000000
0.573512 0.434510 0.000000
0.537968 0.469081 0.000000
0.500000 0.500000 0.000000
0.462032 0.530919 0.000000
0.426488 0.565490 0.000000
0.397048 0.611488 0.000000
0.376197 0.661915 0.000000
0.371570 0.720742 0.000000
0.380999 0.781402 0.000000
0.436648 0.848115 0.000000
0.528213 0.904676 0.000000
0.720585 0.936370 0.000000
1.000000 0.946007 0.000000
0.000000 0.063037 0.000000
0.243283 0.071545 0.000000
0.422120 0.097801 0.000000
0.511570 0.146029 0.000000
0.570636 0.203447 0.000000
0.583327 0.256769 0.000000
0.582870 0.309103 0.000000
0.566179 0.355067 0.000000
0.540821 0.397912 0.000000
0.506355 0.430579 0.000000
0.469081 0.462032 0.000000
0.430579 0.493645 0.000000
0.395307 0.532144 0.000000
0.363624 0.579477 0.000000
0.340685 0.635692 0.000000
0.332165 0.698799 0.000000
0.341490 0.768993 0.000000
0.391397 0.842325 0.000000
0.483191 0.905773 0.000000
0.685341 0.943175 0.000000
1.000000 0.953528 0.000000
0.000000 0.074039 0.000000
0.205141 0.080876 0.000000
0.367425 0.101884 0.000000
0.455944 0.143150 0.000000
0.516395 0.192817 0.000000
0.531595 0.238661 0.000000
0.534322 0.285259 0.000000
0.520955 0.326321 0.000000
0.499291 0.365178 0.000000
0.467856 0.395307 0.000000
0.434510 0.426488 0.000000
0.397912 0.459179 0.000000
0.365178 0.500709 0.000000
0.332133 0.549705 0.000000
0.309180 0.611701 0.000000
0.296651 0.678693 0.000000
0.308514 0.757573 0.000000
0.350466 0.837299 0.000000
0.442668 0.905867 0.000000
0.650526 0.949132 0.000000
1.000000 0.960056 0.000000
0.000000 0.087293 0.000000
0.164921 0.092573 0.000000
0.303527 0.108415 0.000000
0.386240 0.139877 0.000000
0.446445 0.178958 0.000000
0.467882 0.218007 0.000000
0.475928 0.257970 0.000000
0.468357 0.295552 0.000000
0.450295 0.332133 0.000000
0.420523 0.363624 0.000000
0.388512 0.397048 0.000000
0.355067 0.433821 0.000000
0.326321 0.479045 0.000000
0.295552 0.531643 0.000000
0.276337 0.598217 0.000000
0.262735 0.670174 0.000000
0.280376 0.753892 0.000000
0.315817 0.838099 0.000000
0.408695 0.907656 0.000000
0.620577 0.954930 0.000000
1.000000 0.965837 0.000000
0.000000 0.104874 0.000000
0.126906 0.108458 0.000000
0.238648 0.120163 0.000000
0.313976 0.144221 0.000000
0.373897 0.175990 0.000000
0.396538 0.209128 0.000000
0.406395 0.243609 0.000000
0.401783 0.276337 0.000000
0.388299 0.309180 0.000000
0.364308 0.340685 0.000000
0.338085 0.376197 0.000000
0.309103 0.417130 0.000000
0.285259 0.465678 0.000000
0.257970 0.524072 0.000000
0.243609 0.593605 0.000000
0.231763 0.672459 0.000000
0.255065 0.756521 0.000000
0.286816 0.844364 0.000000
0.380413 0.911869 0.000000
0.595293 0.960651 0.000000
1.000000 0.971038 0.000000
0.000000 0.128116 0.000000
0.097185 0.131143 0.000000
0.177771 0.141000 0.000000
0.236623 0.157808 0.000000
0.284864 0.178418 0.000000
0.311884 0.203438 0.000000
0.327541 0.231763 0.000000
0.329826 0.262735 0.000000
0.321307 0.296651 0.000000
0.301201 0.332165 0.000000
0.279258 0.371570 0.000000
0.256769 0.416673 0.000000
0.238661 0.468405 0.000000
0.218007 0.532118 0.000000
0.209128 0.603462 0.000000
0.203438 0.688116 0.000000
0.231151 0.767937 0.000000
0.263203 0.857005 0.000000
0.355997 0.918920 0.000000
0.573693 0.966584 0.000000
1.000000 0.975947 0.000000
0.000000 0.158000 0.000000
0.068174 0.160985 0.000000
0.126811 0.171745 0.000000
0.173606 0.188765 0.000000
0.211735 0.208570 0.000000
0.232063 0.231151 0.000000
0.243479 0.255065 0.000000
0.246108 0.280376 0.000000
0.242427 0.308514 0.000000
0.231007 0.341490 0.000000
0.218598 0.380999 0.000000
0.203447 0.429364 0.000000
0.192817 0.483605 0.000000
0.178958 0.553555 0.000000
0.175990 0.626103 0.000000
0.178418 0.715136 0.000000
0.208570 0.788265 0.000000
0.245025 0.875561 0.000000
0.336467 0.929442 0.000000
0.557378 0.972740 0.000000
1.000000 0.980603 0.000000
0.000000 0.211882 0.000000
0.036316 0.214653 0.000000
0.069706 0.220373 0.000000
0.098475 0.231985 0.000000
0.124439 0.245025 0.000000
0.142995 0.263203 0.000000
0.155636 0.286816 0.000000
0.161901 0.315817 0.000000
0.162701 0.350466 0.000000
[...]
POINT_DATA 2205 
VECTORS pos float 
0.000000 0.000000 0.000000
0.475472 0.000000 0.000000
0.706684 0.000000 0.000000
0.788118 0.000000 0.000000
0.842000 0.000000 0.000000
0.871884 0.000000 0.000000
0.895126 0.000000 0.000000
0.912707 0.000000 0.000000
0.925961 0.000000 0.000000
0.936963 0.000000 0.000000
0.946007 0.000000 0.000000
0.953528 0.000000 0.000000
0.960056 0.000000 0.000000
0.965837 0.000000 0.000000
0.971038 0.000000 0.000000
0.975947 0.000000 0.000000
0.980603 0.000000 0.000000
0.985221 0.000000 0.000000
0.990011 0.000000 0.000000
0.994948 0.000000 0.000000
1.000000 0.000000 0.000000
0.000000 0.005052 0.000000
0.472937 0.007147 0.000000
0.701970 0.020782 0.000000
0.785347 0.036316 0.000000
0.839015 0.068174 0.000000
0.868857 0.097185 0.000000
0.891542 0.126906 0.000000
0.907427 0.164921 0.000000
0.919124 0.205141 0.000000
0.928455 0.243283 0.000000
0.936370 0.279415 0.000000
0.943175 0.314659 0.000000
0.949132 0.349474 0.000000
0.954930 0.379423 0.000000
0.960651 0.404707 0.000000
0.966584 0.426307 0.000000
0.972740 0.442622 0.000000
0.979210 0.455664 0.000000
0.985874 0.465874 0.000000
0.992853 0.472937 0.000000
1.000000 0.475472 0.000000
0.000000 0.009989 0.000000
0.465874 0.014126 0.000000
0.693095 0.039961 0.000000
0.779627 0.069706 0.000000
0.828255 0.126811 0.000000
0.859000 0.177771 0.000000
0.879837 0.238648 0.000000
0.891585 0.303527 0.000000
0.898116 0.367425 0.000000
0.902199 0.422120 0.000000
0.904676 0.471787 0.000000
0.905773 0.516809 0.000000
0.905867 0.557332 0.000000
0.907656 0.591305 0.000000
0.911869 0.619587 0.000000
0.918920 0.644003 0.000000
0.929442 0.663533 0.000000
0.943509 0.679840 0.000000
0.960039 0.693095 0.000000
0.979218 0.701970 0.000000
1.000000 0.706684 0.000000
0.000000 0.014779 0.000000
0.455664 0.020790 0.000000
0.679840 0.056491 0.000000
0.768015 0.098475 0.000000
0.811235 0.173606 0.000000
0.842192 0.236623 0.000000
0.855779 0.313976 0.000000
0.860123 0.386240 0.000000
0.856850 0.455944 0.000000
0.853971 0.511570 0.000000
0.848115 0.563352 0.000000
0.842325 0.608603 0.000000
0.837299 0.649534 0.000000
0.838099 0.684183 0.000000
0.844364 0.713184 0.000000
0.857005 0.736797 0.000000
0.875561 0.754975 0.000000
0.901525 0.768015 0.000000
0.930294 0.779627 0.000000
0.963684 0.785347 0.000000
1.000000 0.788118 0.000000
0.000000 0.019397 0.000000
0.442622 0.027260 0.000000
0.663533 0.070558 0.000000
0.754975 0.124439 0.000000
0.791430 0.211735 0.000000
0.821582 0.284864 0.000000
0.824010 0.373897 0.000000
0.821042 0.446445 0.000000
0.807183 0.516395 0.000000
0.796553 0.570636 0.000000
0.781402 0.619001 0.000000
0.768993 0.658510 0.000000
0.757573 0.691486 0.000000
0.753892 0.719624 0.000000
0.756521 0.744935 0.000000
0.767937 0.768849 0.000000
0.788265 0.791430 0.000000
0.826394 0.811235 0.000000
0.873189 0.828255 0.000000
0.931826 0.839015 0.000000
1.000000 0.842000 0.000000
0.000000 0.024053 0.000000
0.426307 0.033416 0.000000
0.644003 0.081080 0.000000
0.736797 0.142995 0.000000
0.768849 0.232063 0.000000
0.796562 0.311884 0.000000
0.790872 0.396538 0.000000
0.781993 0.467882 0.000000
0.761339 0.531595 0.000000
0.743231 0.583327 0.000000
0.720742 0.628430 0.000000
0.698799 0.667835 0.000000
0.678693 0.703349 0.000000
0.670174 0.737265 0.000000
0.672459 0.768237 0.000000
0.688116 0.796562 0.000000
0.715136 0.821582 0.000000
0.763377 0.842192 0.000000
0.822229 0.859000 0.000000
0.902815 0.868857 0.000000
1.000000 0.871884 0.000000
0.000000 0.028962 0.000000
0.404707 0.039349 0.000000
0.619587 0.088131 0.000000
0.713184 0.155636 0.000000
0.744935 0.243479 0.000000
0.768237 0.327541 0.000000
0.756391 0.406395 0.000000
0.742030 0.475928 0.000000
0.714741 0.534322 0.000000
0.690897 0.582870 0.000000
0.661915 0.623803 0.000000
0.635692 0.659315 0.000000
0.611701 0.690820 0.000000
0.598217 0.723663 0.000000
0.593605 0.756391 0.000000
0.603462 0.790872 0.000000
0.626103 0.824010 0.000000
0.686024 0.855779 0.000000
0.761352 0.879837 0.000000
0.873094 0.891542 0.000000
1.000000 0.895126 0.000000
0.000000 0.034163 0.000000
0.379423 0.045070 0.000000
0.591305 0.092344 0.000000
0.684183 0.161901 0.000000
0.719624 0.246108 0.000000
0.737265 0.329826 0.000000
0.723663 0.401783 0.000000
0.704448 0.468357 0.000000
0.673679 0.520955 0.000000
0.644933 0.566179 0.000000
0.611488 0.602952 0.000000
0.579477 0.636376 0.000000
0.549705 0.667867 0.000000
0.531643 0.704448 0.000000
0.524072 0.742030 0.000000
0.532118 0.781993 0.000000
0.553555 0.821042 0.000000
0.613760 0.860123 0.000000
0.696473 0.891585 0.000000
0.835079 0.907427 0.000000
1.000000 0.912707 0.000000
0.000000 0.039944 0.000000
0.349474 0.050868 0.000000
0.557332 0.094133 0.000000
0.649534 0.162701 0.000000
0.691486 0.242427 0.000000
0.703349 0.321307 0.000000
0.690820 0.388299 0.000000
0.667867 0.450295 0.000000
0.634822 0.499291 0.000000
0.602088 0.540821 0.000000
0.565490 0.573512 0.000000
0.532144 0.604693 0.000000
0.500709 0.634822 0.000000
0.479045 0.673679 0.000000
0.465678 0.714741 0.000000
0.468405 0.761339 0.000000
0.483605 0.807183 0.000000
0.544056 0.856850 0.000000
0.632575 0.898116 0.000000
0.794859 0.919124 0.000000
1.000000 0.925961 0.000000
0.000000 0.046472 0.000000
0.314659 0.056825 0.000000
0.516809 0.094227 0.000000
0.608603 0.157675 0.000000
0.658510 0.231007 0.000000
0.667835 0.301201 0.000000
0.659315 0.364308 0.000000
0.636376 0.420523 0.000000
0.604693 0.467856 0.000000
0.569421 0.506355 0.000000
0.530919 0.537968 0.000000
0.493645 0.569421 0.000000
0.459179 0.602088 0.000000
0.433821 0.644933 0.000000
0.417130 0.690897 0.000000
0.416673 0.743231 0.000000
0.429364 0.796553 0.000000
0.488430 0.853971 0.000000
0.577880 0.902199 0.000000
0.756717 0.928455 0.000000
1.000000 0.936963 0.000000
0.000000 0.053993 0.000000
0.279415 0.063630 0.000000
0.471787 0.095324 0.000000
0.563352 0.151885 0.000000
0.619001 0.218598 0.000000
0.628430 0.279258 0.000000
0.623803 0.338085 0.000000
0.602952 0.388512 0.000000
0.573512 0.434510 0.000000
0.537968 0.469081 0.000000
0.500000 0.500000 0.000000
0.462032 0.530919 0.000000
0.426488 0.565490 0.000000
0.397048 0.611488 0.000000
0.376197 0.661915 0.000000
0.371570 0.720742 0.000000
0.380999 0.781402 0.000000
0.436648 0.848115 0.000000
0.528213 0.904676 0.000000
0.720585 0.936370 0.000000
1.000000 0.946007 0.000000
0.000000 0.063037 0.000000
0.243283 0.071545 0.000000
0.422120 0.097801 0.000000
0.511570 0.146029 0.000000
0.570636 0.203447 0.000000
0.583327 0.256769 0.000000
0.582870 0.309103 0.000000
0.566179 0.355067 0.000000
0.540821 0.397912 0.000000
0.506355 0.430579 0.000000
0.469081 0.462032 0.000000
0.430579 0.493645 0.000000
0.395307 0.532144 0.000000
0.363624 0.579477 0.000000
0.340685 0.635692 0.000000
0.332165 0.698799 0.000000
0.341490 0.768993 0.000000
0.391397 0.842325 0.000000
0.483191 0.905773 0.000000
0.685341 0.943175 0.000000
1.000000 0.953528 0.000000
0.000000 0.074039 0.000000
0.205141 0.080876 0.000000
0.367425 0.101884 0.000000
0.455944 0.143150 0.000000
0.516395 0.192817 0.000000
0.531595 0.238661 0.000000
0.534322 0.285259 0.000000
0.520955 0.326321 0.000000
0.499291 0.365178 0.000000
0.467856 0.395307 0.000000
0.434510 0.426488 0.000000
0.397912 0.459179 0.000000
0.365178 0.500709 0.000000
0.332133 0.549705 0.000000
0.309180 0.611701 0.000000
0.296651 0.678693 0.000000
0.308514 0.757573 0.000000
0.350466 0.837299 0.000000
0.442668 0.905867 0.000000
0.650526 0.949132 0.000000
1.000000 0.960056 0.000000
0.000000 0.087293 0.000000
0.164921 0.092573 0.000000
0.303527 0.108415 0.000000
0.386240 0.139877 0.000000
0.446445 0.178958 0.000000
0.467882 0.218007 0.000000
0.475928 0.257970 0.000000
0.468357 0.295552 0.000000
0.450295 0.332133 0.000000
0.420523 0.363624 0.000000
0.388512 0.397048 0.000000
0.355067 0.433821 0.000000
0.326321 0.479045 0.000000
0.295552 0.531643 0.000000
0.276337 0.598217 0.000000
0.262735 0.670174 0.000000
0.280376 0.753892 0.000000
0.315817 0.838099 0.000000
0.408695 0.907656 0.000000
0.620577 0.954930 0.000000
1.000000 0.965837 0.000000
0.000000 0.104874 0.000000
0.126906 0.108458 0.000000
0.238648 0.120163 0.000000
0.313976 0.144221 0.000000
0.373897 0.175990 0.000000
0.396538 0.209128 0.000000
0.406395 0.243609 0.000000
0.401783 0.276337 0.000000
0.388299 0.309180 0.000000
0.364308 0.340685 0.000000
0.338085 0.376197 0.000000
0.309103 0.417130 0.000000
0.285259 0.465678 0.000000
0.257970 0.524072 0.000000
0.243609 0.593605 0.000000
0.231763 0.672459 0.000000
0.255065 0.756521 0.000000
0.286816 0.844364 0.000000
0.380413 0.911869 0.000000
0.595293 0.960651 0.000000
1.000000 0.971038 0.000000
0.000000 0.128116 0.000000
0.097185 0.131143 0.000000
0.177771 0.141000 0.000000
0.236623 0.157808 0.000000
0.284864 0.178418 0.000000
0.311884 0.203438 0.000000
0.327541 0.231763 0.000000
0.329826 0.262735 0.000000
0.321307 0.296651 0.000000
0.301201 0.332165 0.000000
0.279258 0.371570 0.000000
0.256769 0.416673 0.000000
0.238661 0.468405 0.000000
0.218007 0.532118 0.000000
0.209128 0.603462 0.000000
0.203438 0.688116 0.000000
0.231151 0.767937 0.000000
0.263203 0.857005 0.000000
0.355997 0.918920 0.000000
0.573693 0.966584 0.000000
1.000000 0.975947 0.000000
0.000000 0.158000 0.000000
0.068174 0.160985 0.000000
0.126811 0.171745 0.000000
0.173606 0.188765 0.000000
0.211735 0.208570 0.000000
0.232063 0.231151 0.000000
0.243479 0.255065 0.000000
0.246108 0.280376 0.000000
0.242427 0.308514 0.000000
0.231007 0.341490 0.000000
0.218598 0.380999 0.000000
0.203447 0.429364 0.000000
0.192817 0.483605 0.000000
0.178958 0.553555 0.000000
0.175990 0.626103 0.000000
0.178418 0.715136 0.000000
0.208570 0.788265 0.000000
0.245025 0.875561 0.000000
0.336467 0.929442 0.000000
0.557378 0.972740 0.000000
1.000000 0.980603 0.000000
0.000000 0.211882 0.000000
0.036316 0.214653 0.000000
0.069706 0.220373 0.000000
0.098475 0.231985 0.000000
0.124439 0.245025 0.000000
0.142995 0.263203 0.000000
0.155636 0.286816 0.000000
0.161901 0.315817 0.000000
0.162701 0.350466 0.000000
0.157675 0.391397 0.000000
0.151885 0.436648 0.000000
0.146029 0.488430 0.000000
0.143150 0.544056 0.000000
0.139877 0.613760 0.000000
0.144221 0.686024 0.000000
0.157808 0.763377 0.000000
0.188765 0.826394 0.000000
0.231985 0.901525 0.000000
0.320160 0.943509 0.000000
0.544336 0.979210 0.000000
1.000000 0.985221 0.000000
0.000000 0.293316 0.000000
0.020782 0.298030 0.000000
0.039961 0.306905 0.000000
0.056491 0.320160 0.000000
0.070558 0.336467 0.000000
0.081080 0.355997 0.000000
0.088131 0.380413 0.000000
0.092344 0.408695 0.000000
0.094133 0.442668 0.000000
0.094227 0.483191 0.000000
0.095324 0.528213 0.000000
0.097801 0.577880 0.000000
0.101884 0.632575 0.000000
0.108415 0.696473 0.000000
0.120163 0.761352 0.000000
0.141000 0.822229 0.000000
0.171745 0.873189 0.000000
0.220373 0.930294 0.000000
0.306905 0.960039 0.000000
0.534126 0.985874 0.000000
1.000000 0.990011 0.000000
0.000000 0.524528 0.000000
0.007147 0.527063 0.000000
0.014126 0.534126 0.000000
0.020790 0.544336 0.000000
0.027260 0.557378 0.000000
0.033416 0.573693 0.000000
0.039349 0.595293 0.000000
0.045070 0.620577 0.000000
0.050868 0.650526 0.000000
0.056825 0.685341 0.000000
0.063630 0.720585 0.000000
0.071545 0.756717 0.000000
0.080876 0.794859 0.000000
0.092573 0.835079 0.000000
0.108458 0.873094 0.000000
0.131143 0.902815 0.000000
0.160985 0.931826 0.000000
0.214653 0.963684 0.000000
0.298030 0.979218 0.000000
0.527063 0.992853 0.000000
1.000000 0.994948 0.000000
0.000000 1.000000 0.000000
0.005052 1.000000 0.000000
0.009989 1.000000 0.000000
0.014779 1.000000 0.000000
0.019397 1.000000 0.000000
0.024053 1.000000 0.000000
0.028962 1.000000 0.000000
0.034163 1.000000 0.000000
0.039944 1.000000 0.000000
0.046472 1.000000 0.000000
0.053993 1.000000 0.000000
0.063037 1.000000 0.000000
0.074039 1.000000 0.000000
0.087293 1.000000 0.000000
0.104874 1.000000 0.000000
0.128116 1.000000 0.000000
0.158000 1.000000 0.000000
0.211882 1.000000 0.000000
0.293316 1.000000 0.000000
0.524528 1.000000 0.000000
1.000000 1.000000 0.000000
0.000000 0.000000 0.082500
0.475472 0.000000 0.082500
0.706684 0.000000 0.082500
0.788118 0.000000 0.082500
0.842000 0.000000 0.082500
0.871884 0.000000 0.082500
0.895126 0.000000 0.082500
0.912707 0.000000 0.082500
0.925961 0.000000 0.082500
0.936963 0.000000 0.082500
0.946007 0.000000 0.082500
0.953528 0.000000 0.082500
0.960056 0.000000 0.082500
0.965837 0.000000 0.082500
0.971038 0.000000 0.082500
0.975947 0.000000 0.082500
0.980603 0.000000 0.082500
0.985221 0.000000 0.082500
0.990011 0.000000 0.082500
0.994948 0.000000 0.082500
1.000000 0.000000 0.082500
0.000000 0.005052 0.082500
0.472937 0.007147 0.082500
0.701970 0.020782 0.082500
0.785347 0.036316 0.082500
0.839015 0.068174 0.082500
0.868857 0.097185 0.082500
0.891542 0.126906 0.082500
0.907427 0.164921 0.082500
0.919124 0.205141 0.082500
0.928455 0.243283 0.082500
0.936370 0.279415 0.082500
0.943175 0.314659 0.082500
0.949132 0.349474 0.082500
0.954930 0.379423 0.082500
0.960651 0.404707 0.082500
0.966584 0.426307 0.082500
0.972740 0.442622 0.082500
0.979210 0.455664 0.082500
0.985874 0.465874 0.082500
0.992853 0.472937 0.082500
1.000000 0.475472 0.082500
0.000000 0.009989 0.082500
0.465874 0.014126 0.082500
0.693095 0.039961 0.082500
0.779627 0.069706 0.082500
0.828255 0.126811 0.082500
0.859000 0.177771 0.082500
0.879837 0.238648 0.082500
0.891585 0.303527 0.082500
0.898116 0.367425 0.082500
0.902199 0.422120 0.082500
0.904676 0.471787 0.082500
0.905773 0.516809 0.082500
0.905867 0.557332 0.082500
0.907656 0.591305 0.082500
0.911869 0.619587 0.082500
0.918920 0.644003 0.082500
0.929442 0.663533 0.082500
0.943509 0.679840 0.082500
0.960039 0.693095 0.082500
0.979218 0.701970 0.082500
1.000000 0.706684 0.082500
0.000000 0.014779 0.082500
0.455664 0.020790 0.082500
0.679840 0.056491 0.082500
0.768015 0.098475 0.082500
0.811235 0.173606 0.082500
0.842192 0.236623 0.082500
0.855779 0.313976 0.082500
0.860123 0.386240 0.082500
0.856850 0.455944 0.082500
0.853971 0.511570 0.082500
0.848115 0.563352 0.082500
0.842325 0.608603 0.082500
0.837299 0.649534 0.082500
0.838099 0.684183 0.082500
0.844364 0.713184 0.082500
0.857005 0.736797 0.082500
0.875561 0.754975 0.082500
0.901525 0.768015 0.082500
0.930294 0.779627 0.082500
0.963684 0.785347 0.082500
1.000000 0.788118 0.082500
0.000000 0.019397 0.082500
0.442622 0.027260 0.082500
0.663533 0.070558 0.082500
0.754975 0.124439 0.082500
0.791430 0.211735 0.082500
0.821582 0.284864 0.082500
0.824010 0.373897 0.082500
0.821042 0.446445 0.082500
0.807183 0.516395 0.082500
0.796553 0.570636 0.082500
0.781402 0.619001 0.082500
0.768993 0.658510 0.082500
0.757573 0.691486 0.082500
0.753892 0.719624 0.082500
0.756521 0.744935 0.082500
0.767937 0.768849 0.082500
0.788265 0.791430 0.082500
0.826394 0.811235 0.082500
0.873189 0.828255 0.082500
0.931826 0.839015 0.082500
1.000000 0.842000 0.082500
0.000000 0.024053 0.082500
0.426307 0.033416 0.082500
0.644003 0.081080 0.082500
0.736797 0.142995 0.082500
0.768849 0.232063 0.082500
0.796562 0.311884 0.082500
0.790872 0.396538 0.082500
0.781993 0.467882 0.082500
0.761339 0.531595 0.082500
0.743231 0.583327 0.082500
0.720742 0.628430 0.082500
0.698799 0.667835 0.082500
0.678693 0.703349 0.082500
0.670174 0.737265 0.082500
0.672459 0.768237 0.082500
0.688116 0.796562 0.082500
0.715136 0.821582 0.082500
0.763377 0.842192 0.082500
0.822229 0.859000 0.082500
0.902815 0.868857 0.082500
1.000000 0.871884 0.082500
0.000000 0.028962 0.082500
0.404707 0.039349 0.082500
0.619587 0.088131 0.082500
0.713184 0.155636 0.082500
0.744935 0.243479 0.082500
0.768237 0.327541 0.082500
0.756391 0.406395 0.082500
0.742030 0.475928 0.082500
0.714741 0.534322 0.082500
0.690897 0.582870 0.082500
0.661915 0.623803 0.082500
0.635692 0.659315 0.082500
0.611701 0.690820 0.082500
0.598217 0.723663 0.082500
0.593605 0.756391 0.082500
0.603462 0.790872 0.082500
0.626103 0.824010 0.082500
0.686024 0.855779 0.082500
0.761352 0.879837 0.082500
0.873094 0.891542 0.082500
1.000000 0.895126 0.082500
0.000000 0.034163 0.082500
0.379423 0.045070 0.082500
0.591305 0.092344 0.082500
0.684183 0.161901 0.082500
0.719624 0.246108 0.082500
0.737265 0.329826 0.082500
0.723663 0.401783 0.082500
0.704448 0.468357 0.082500
0.673679 0.520955 0.082500
0.644933 0.566179 0.082500
0.611488 0.602952 0.082500
0.579477 0.636376 0.082500
0.549705 0.667867 0.082500
0.531643 0.704448 0.082500
0.524072 0.742030 0.082500
0.532118 0.781993 0.082500
0.553555 0.821042 0.082500
0.613760 0.860123 0.082500
0.696473 0.891585 0.082500
0.835079 0.907427 0.082500
1.000000 0.912707 0.082500
0.000000 0.039944 0.082500
0.349474 0.050868 0.082500
0.557332 0.094133 0.082500
0.649534 0.162701 0.082500
0.691486 0.242427 0.082500
0.703349 0.321307 0.082500
0.690820 0.388299 0.082500
0.667867 0.450295 0.082500
0.634822 0.499291 0.082500
0.602088 0.540821 0.082500
0.565490 0.573512 0.082500
0.532144 0.604693 0.082500
0.500709 0.634822 0.082500
0.479045 0.673679 0.082500
0.465678 0.714741 0.082500
0.468405 0.761339 0.082500
0.483605 0.807183 0.082500
0.544056 0.856850 0.082500
0.632575 0.898116 0.082500
0.794859 0.919124 0.082500
1.000000 0.925961 0.082500
0.000000 0.046472 0.082500
0.314659 0.056825 0.082500
0.516809 0.094227 0.082500
0.608603 0.157675 0.082500
0.658510 0.231007 0.082500
0.667835 0.301201 0.082500
0.659315 0.364308 0.082500
0.636376 0.420523 0.082500
0.604693 0.467856 0.082500
0.569421 0.506355 0.082500
0.530919 0.537968 0.082500
0.493645 0.569421 0.082500
0.459179 0.602088 0.082500
0.433821 0.644933 0.082500
0.417130 0.690897 0.082500
0.416673 0.743231 0.082500
0.429364 0.796553 0.082500
0.488430 0.853971 0.082500
0.577880 0.902199 0.082500
0.756717 0.928455 0.082500
1.000000 0.936963 0.082500
0.000000 0.053993 0.082500
0.279415 0.063630 0.082500
0.471787 0.095324 0.082500
0.563352 0.151885 0.082500
0.619001 0.218598 0.082500
0.628430 0.279258 0.082500
0.623803 0.338085 0.082500
0.602952 0.388512 0.082500
0.573512 0.434510 0.082500
0.537968 0.469081 0.082500
0.500000 0.500000 0.082500
0.462032 0.530919 0.082500
0.426488 0.565490 0.082500
0.397048 0.611488 0.082500
0.376197 0.661915 0.082500
0.371570 0.720742 0.082500
0.380999 0.781402 0.082500
0.436648 0.848115 0.082500
0.528213 0.904676 0.082500
0.720585 0.936370 0.082500
1.000000 0.946007 0.082500
0.000000 0.063037 0.082500
0.243283 0.071545 0.082500
0.422120 0.097801 0.082500
0.511570 0.146029 0.082500
0.570636 0.203447 0.082500
0.583327 0.256769 0.082500
0.582870 0.309103 0.082500
0.566179 0.355067 0.082500
0.540821 0.397912 0.082500
0.506355 0.430579 0.082500
0.469081 0.462032 0.082500
0.430579 0.493645 0.082500
0.395307 0.532144 0.082500
0.363624 0.579477 0.082500
0.340685 0.635692 0.082500
0.332165 0.698799 0.082500
0.341490 0.768993 0.082500
0.391397 0.842325 0.082500
0.483191 0.905773 0.082500
0.685341 0.943175 0.082500
1.000000 0.953528 0.082500
0.000000 0.074039 0.082500
0.205141 0.080876 0.082500
0.367425 0.101884 0.082500
0.455944 0.143150 0.082500
0.516395 0.192817 0.082500
0.531595 0.238661 0.082500
0.534322 0.285259 0.082500
0.520955 0.326321 0.082500
0.499291 0.365178 0.082500
0.467856 0.395307 0.082500
0.434510 0.426488 0.082500
0.397912 0.459179 0.082500
0.365178 0.500709 0.082500
0.332133 0.549705 0.082500
0.309180 0.611701 0.082500
0.296651 0.678693 0.082500
0.308514 0.757573 0.082500
0.350466 0.837299 0.082500
0.442668 0.905867 0.082500
0.650526 0.949132 0.082500
1.000000 0.960056 0.082500
0.000000 0.087293 0.082500
0.164921 0.092573 0.082500
0.303527 0.108415 0.082500
0.386240 0.139877 0.082500
0.446445 0.178958 0.082500
0.467882 0.218007 0.082500
0.475928 0.257970 0.082500
0.468357 0.295552 0.082500
0.450295 0.332133 0.082500
0.420523 0.363624 0.082500
0.388512 0.397048 0.082500
0.355067 0.433821 0.082500
0.326321 0.479045 0.082500
0.295552 0.531643 0.082500
0.276337 0.598217 0.082500
0.262735 0.670174 0.082500
0.280376 0.753892 0.082500
0.315817 0.838099 0.082500
0.408695 0.907656 0.082500
0.620577 0.954930 0.082500
1.000000 0.965837 0.082500
0.000000 0.104874 0.082500
0.126906 0.108458 0.082500
0.238648 0.120163 0.082500
0.313976 0.144221 0.082500