# vtk DataFile Version 2.0
Mesh for Fierro
ASCII 
DATASET UNSTRUCTURED_GRID

POINTS 2205 float
0.000000 0.000000 0.000000
0.065869 0.000000 0.000000
0.131325 0.000000 0.000000
0.196535 0.000000 0.000000
0.260104 0.000000 0.000000
0.319944 0.000000 0.000000
0.377856 0.000000 0.000000
0.434099 0.000000 0.000000
0.488305 0.000000 0.000000
0.539558 0.000000 0.000000
0.588626 0.000000 0.000000
0.635273 0.000000 0.000000
0.680321 0.000000 0.000000
0.724685 0.000000 0.000000
0.766943 0.000000 0.000000
0.807653 0.000000 0.000000
0.846827 0.000000 0.000000
0.886064 0.000000 0.000000
0.924313 0.000000 0.000000
0.962617 0.000000 0.000000
1.000000 0.000000 0.000000
0.000000 0.037383 0.000000
0.065706 0.037576 0.000000
0.130981 0.038070 0.000000
0.196085 0.038946 0.000000
0.259493 0.040094 0.000000
0.319224 0.041575 0.000000
0.376966 0.043270 0.000000
0.433111 0.045176 0.000000
0.487257 0.047267 0.000000
0.538458 0.049427 0.000000
0.587561 0.051610 0.000000
0.634219 0.053787 0.000000
0.679316 0.055976 0.000000
0.723718 0.058035 0.000000
0.766077 0.059956 0.000000
0.806842 0.061673 0.000000
0.846137 0.063130 0.000000
0.885531 0.064327 0.000000
0.923973 0.065166 0.000000
0.962424 0.065706 0.000000
1.000000 0.065869 0.000000
0.000000 0.075687 0.000000
0.065166 0.076027 0.000000
0.129923 0.077017 0.000000
0.194462 0.078649 0.000000
0.257499 0.080853 0.000000
0.316734 0.083725 0.000000
0.374201 0.087014 0.000000
0.430119 0.090769 0.000000
0.484146 0.094853 0.000000
0.535215 0.099108 0.000000
0.584212 0.103376 0.000000
0.630933 0.107626 0.000000
0.676138 0.111901 0.000000
0.720756 0.115948 0.000000
0.763393 0.119681 0.000000
0.804468 0.123053 0.000000
0.844265 0.125943 0.000000
0.883983 0.128277 0.000000
0.922983 0.129923 0.000000
0.961930 0.130981 0.000000
1.000000 0.131325 0.000000
0.000000 0.113936 0.000000
0.064327 0.114469 0.000000
0.128277 0.116017 0.000000
0.192102 0.118600 0.000000
0.254390 0.122031 0.000000
0.312974 0.126342 0.000000
0.369804 0.131204 0.000000
0.425298 0.136696 0.000000
0.479054 0.142640 0.000000
0.529905 0.148895 0.000000
0.578872 0.155279 0.000000
0.625657 0.161596 0.000000
0.671001 0.167951 0.000000
0.715949 0.173908 0.000000
0.759069 0.179511 0.000000
0.800516 0.184436 0.000000
0.841026 0.188648 0.000000
0.881400 0.192102 0.000000
0.921351 0.194462 0.000000
0.961054 0.196085 0.000000
1.000000 0.196535 0.000000
0.000000 0.153173 0.000000
0.063130 0.153863 0.000000
0.125943 0.155735 0.000000
0.188648 0.158974 0.000000
0.250111 0.163246 0.000000
0.307728 0.168894 0.000000
0.363871 0.175348 0.000000
0.418882 0.182670 0.000000
0.472399 0.190616 0.000000
0.522843 0.198827 0.000000
0.571595 0.207157 0.000000
0.618473 0.215425 0.000000
0.664042 0.223621 0.000000
0.709436 0.231254 0.000000
0.753146 0.238449 0.000000
0.795274 0.244756 0.000000
0.836754 0.250111 0.000000
0.877969 0.254390 0.000000
0.919147 0.257499 0.000000
0.959906 0.259493 0.000000
1.000000 0.260104 0.000000
0.000000 0.192347 0.000000
0.061673 0.193158 0.000000
0.123053 0.195532 0.000000
0.184436 0.199484 0.000000
0.244756 0.204726 0.000000
0.301185 0.211331 0.000000
0.356411 0.218879 0.000000
0.410810 0.227403 0.000000
0.464027 0.236632 0.000000
0.514031 0.246294 0.000000
0.562566 0.256167 0.000000
0.609572 0.265967 0.000000
0.655354 0.275738 0.000000
0.701300 0.284926 0.000000
0.745675 0.293565 0.000000
0.788669 0.301185 0.000000
0.831106 0.307728 0.000000
0.873658 0.312974 0.000000
0.916275 0.316734 0.000000
0.958425 0.319224 0.000000
1.000000 0.319944 0.000000
0.000000 0.233057 0.000000
0.059956 0.233923 0.000000
0.119681 0.236607 0.000000
0.179511 0.240931 0.000000
0.238449 0.246854 0.000000
0.293565 0.254325 0.000000
0.347708 0.262876 0.000000
0.401268 0.272611 0.000000
0.453970 0.283130 0.000000
0.503527 0.294147 0.000000
0.551987 0.305326 0.000000
0.599162 0.316467 0.000000
0.645256 0.327497 0.000000
0.691880 0.337964 0.000000
0.737124 0.347708 0.000000
0.781121 0.356411 0.000000
0.824652 0.363871 0.000000
0.868796 0.369804 0.000000
0.912986 0.374201 0.000000
0.956730 0.376966 0.000000
1.000000 0.377856 0.000000
0.000000 0.275315 0.000000
0.058035 0.276282 0.000000
0.115948 0.279244 0.000000
0.173908 0.284051 0.000000
0.231254 0.290564 0.000000
0.284926 0.298700 0.000000
0.337964 0.308120 0.000000
0.390598 0.318779 0.000000
0.442725 0.330319 0.000000
0.491840 0.342374 0.000000
0.540107 0.354711 0.000000
0.587429 0.366991 0.000000
0.633821 0.379098 0.000000
0.681221 0.390598 0.000000
0.727389 0.401268 0.000000
0.772597 0.410810 0.000000
0.817330 0.418882 0.000000
0.863304 0.425298 0.000000
0.909231 0.430119 0.000000
0.954824 0.433111 0.000000
1.000000 0.434099 0.000000
0.000000 0.319679 0.000000
0.055976 0.320684 0.000000
0.111901 0.323862 0.000000
0.167951 0.328999 0.000000
0.223621 0.335958 0.000000
0.275738 0.344646 0.000000
0.327497 0.354744 0.000000
0.379098 0.366179 0.000000
0.430597 0.378545 0.000000
0.479117 0.391484 0.000000
0.527234 0.404677 0.000000
0.574713 0.417804 0.000000
0.621455 0.430597 0.000000
0.669681 0.442725 0.000000
0.716870 0.453970 0.000000
0.763368 0.464027 0.000000
0.809384 0.472399 0.000000
0.857360 0.479054 0.000000
0.905147 0.484146 0.000000
0.952733 0.487257 0.000000
1.000000 0.488305 0.000000
0.000000 0.364727 0.000000
0.053787 0.365781 0.000000
0.107626 0.369067 0.000000
0.161596 0.374343 0.000000
0.215425 0.381527 0.000000
0.265967 0.390428 0.000000
0.316467 0.400838 0.000000
0.366991 0.412571 0.000000
0.417804 0.425287 0.000000
0.465828 0.438582 0.000000
0.513773 0.452207 0.000000
0.561418 0.465828 0.000000
0.608516 0.479117 0.000000
0.657626 0.491840 0.000000
0.705853 0.503527 0.000000
0.753706 0.514031 0.000000
0.801173 0.522843 0.000000
0.851105 0.529905 0.000000
0.900892 0.535215 0.000000
0.950573 0.538458 0.000000
1.000000 0.539558 0.000000
0.000000 0.411374 0.000000
0.051610 0.412439 0.000000
0.103376 0.415788 0.000000
0.155279 0.421128 0.000000
0.207157 0.428405 0.000000
0.256167 0.437434 0.000000
0.305326 0.448013 0.000000
0.354711 0.459893 0.000000
0.404677 0.472766 0.000000
0.452207 0.486227 0.000000
0.500000 0.500000 0.000000
0.547793 0.513773 0.000000
0.595323 0.527234 0.000000
0.645289 0.540107 0.000000
0.694674 0.551987 0.000000
0.743833 0.562566 0.000000
0.792843 0.571595 0.000000
0.844721 0.578872 0.000000
0.896624 0.584212 0.000000
0.948390 0.587561 0.000000
1.000000 0.588626 0.000000
0.000000 0.460442 0.000000
0.049427 0.461542 0.000000
0.099108 0.464785 0.000000
0.148895 0.470095 0.000000
0.198827 0.477157 0.000000
0.246294 0.485969 0.000000
0.294147 0.496473 0.000000
0.342374 0.508160 0.000000
0.391484 0.520883 0.000000
0.438582 0.534172 0.000000
0.486227 0.547793 0.000000
0.534172 0.561418 0.000000
0.582196 0.574713 0.000000
0.633009 0.587429 0.000000
0.683533 0.599162 0.000000
0.734033 0.609572 0.000000
0.784575 0.618473 0.000000
0.838404 0.625657 0.000000
0.892374 0.630933 0.000000
0.946213 0.634219 0.000000
1.000000 0.635273 0.000000
0.000000 0.511695 0.000000
0.047267 0.512743 0.000000
0.094853 0.515854 0.000000
0.142640 0.520946 0.000000
0.190616 0.527601 0.000000
0.236632 0.535973 0.000000
0.283130 0.546030 0.000000
0.330319 0.557275 0.000000
0.378545 0.569403 0.000000
0.425287 0.582196 0.000000
0.472766 0.595323 0.000000
0.520883 0.608516 0.000000
0.569403 0.621455 0.000000
0.620902 0.633821 0.000000
0.672503 0.645256 0.000000
0.724262 0.655354 0.000000
0.776379 0.664042 0.000000
0.832049 0.671001 0.000000
0.888099 0.676138 0.000000
0.944024 0.679316 0.000000
1.000000 0.680321 0.000000
0.000000 0.565901 0.000000
0.045176 0.566889 0.000000
0.090769 0.569881 0.000000
0.136696 0.574702 0.000000
0.182670 0.581118 0.000000
0.227403 0.589190 0.000000
0.272611 0.598732 0.000000
0.318779 0.609402 0.000000
0.366179 0.620902 0.000000
0.412571 0.633009 0.000000
0.459893 0.645289 0.000000
0.508160 0.657626 0.000000
0.557275 0.669681 0.000000
0.609402 0.681221 0.000000
0.662036 0.691880 0.000000
0.715074 0.701300 0.000000
0.768746 0.709436 0.000000
0.826092 0.715949 0.000000
0.884052 0.720756 0.000000
0.941965 0.723718 0.000000
1.000000 0.724685 0.000000
0.000000 0.622144 0.000000
0.043270 0.623034 0.000000
0.087014 0.625799 0.000000
0.131204 0.630196 0.000000
0.175348 0.636129 0.000000
0.218879 0.643589 0.000000
0.262876 0.652292 0.000000
0.308120 0.662036 0.000000
0.354744 0.672503 0.000000
0.400838 0.683533 0.000000
0.448013 0.694674 0.000000
0.496473 0.705853 0.000000
0.546030 0.716870 0.000000
0.598732 0.727389 0.000000
0.652292 0.737124 0.000000
0.706435 0.745675 0.000000
0.761551 0.753146 0.000000
0.820489 0.759069 0.000000
0.880319 0.763393 0.000000
0.940044 0.766077 0.000000
1.000000 0.766943 0.000000
0.000000 0.680056 0.000000
0.041575 0.680776 0.000000
0.083725 0.683266 0.000000
0.126342 0.687026 0.000000
0.168894 0.692272 0.000000
0.211331 0.698815 0.000000
0.254325 0.706435 0.000000
0.298700 0.715074 0.000000
0.344646 0.724262 0.000000
0.390428 0.734033 0.000000
0.437434 0.743833 0.000000
0.485969 0.753706 0.000000
0.535973 0.763368 0.000000
0.589190 0.772597 0.000000
0.643589 0.781121 0.000000
0.698815 0.788669 0.000000
0.755244 0.795274 0.000000
0.815564 0.800516 0.000000
0.876947 0.804468 0.000000
0.938327 0.806842 0.000000
1.000000 0.807653 0.000000
0.000000 0.739896 0.000000
0.040094 0.740507 0.000000
0.080853 0.742501 0.000000
0.122031 0.745610 0.000000
0.163246 0.749889 0.000000
0.204726 0.755244 0.000000
0.246854 0.761551 0.000000
0.290564 0.768746 0.000000
0.335958 0.776379 0.000000
0.381527 0.784575 0.000000
0.428405 0.792843 0.000000
0.477157 0.801173 0.000000
0.527601 0.809384 0.000000
0.581118 0.817330 0.000000
0.636129 0.824652 0.000000
0.692272 0.831106 0.000000
0.749889 0.836754 0.000000
0.811352 0.841026 0.000000
0.874057 0.844265 0.000000
0.936870 0.846137 0.000000
1.000000 0.846827 0.000000
0.000000 0.803465 0.000000
0.038946 0.803915 0.000000
0.078649 0.805538 0.000000
0.118600 0.807898 0.000000
0.158974 0.811352 0.000000
0.199484 0.815564 0.000000
0.240931 0.820489 0.000000
0.284051 0.826092 0.000000
0.328999 0.832049 0.000000
[...]
POINT_DATA 2205 
VECTORS pos float 
0.000000 0.000000 0.000000
0.065869 0.000000 0.000000
0.131325 0.000000 0.000000
0.196535 0.000000 0.000000
0.260104 0.000000 0.000000
0.319944 0.000000 0.000000
0.377856 0.000000 0.000000
0.434099 0.000000 0.000000
0.488305 0.000000 0.000000
0.539558 0.000000 0.000000
0.588626 0.000000 0.000000
0.635273 0.000000 0.000000
0.680321 0.000000 0.000000
0.724685 0.000000 0.000000
0.766943 0.000000 0.000000
0.807653 0.000000 0.000000
0.846827 0.000000 0.000000
0.886064 0.000000 0.000000
0.924313 0.000000 0.000000
0.962617 0.000000 0.000000
1.000000 0.000000 0.000000
0.000000 0.037383 0.000000
0.065706 0.037576 0.000000
0.130981 0.038070 0.000000
0.196085 0.038946 0.000000
0.259493 0.040094 0.000000
0.319224 0.041575 0.000000
0.376966 0.043270 0.000000
0.433111 0.045176 0.000000
0.487257 0.047267 0.000000
0.538458 0.049427 0.000000
0.587561 0.051610 0.000000
0.634219 0.053787 0.000000
0.679316 0.055976 0.000000
0.723718 0.058035 0.000000
0.766077 0.059956 0.000000
0.806842 0.061673 0.000000
0.846137 0.063130 0.000000
0.885531 0.064327 0.000000
0.923973 0.065166 0.000000
0.962424 0.065706 0.000000
1.000000 0.065869 0.000000
0.000000 0.075687 0.000000
0.065166 0.076027 0.000000
0.129923 0.077017 0.000000
0.194462 0.078649 0.000000
0.257499 0.080853 0.000000
0.316734 0.083725 0.000000
0.374201 0.087014 0.000000
0.430119 0.090769 0.000000
0.484146 0.094853 0.000000
0.535215 0.099108 0.000000
0.584212 0.103376 0.000000
0.630933 0.107626 0.000000
0.676138 0.111901 0.000000
0.720756 0.115948 0.000000
0.763393 0.119681 0.000000
0.804468 0.123053 0.000000
0.844265 0.125943 0.000000
0.883983 0.128277 0.000000
0.922983 0.129923 0.000000
0.961930 0.130981 0.000000
1.000000 0.131325 0.000000
0.000000 0.113936 0.000000
0.064327 0.114469 0.000000
0.128277 0.116017 0.000000
0.192102 0.118600 0.000000
0.254390 0.122031 0.000000
0.312974 0.126342 0.000000
0.369804 0.131204 0.000000
0.425298 0.136696 0.000000
0.479054 0.142640 0.000000
0.529905 0.148895 0.000000
0.578872 0.155279 0.000000
0.625657 0.161596 0.000000
0.671001 0.167951 0.000000
0.715949 0.173908 0.000000
0.759069 0.179511 0.000000
0.800516 0.184436 0.000000
0.841026 0.188648 0.000000
0.881400 0.192102 0.000000
0.921351 0.194462 0.000000
0.961054 0.196085 0.000000
1.000000 0.196535 0.000000
0.000000 0.153173 0.000000
0.063130 0.153863 0.000000
0.125943 0.155735 0.000000
0.188648 0.158974 0.000000
0.250111 0.163246 0.000000
0.307728 0.168894 0.000000
0.363871 0.175348 0.000000
0.418882 0.182670 0.000000
0.472399 0.190616 0.000000
0.522843 0.198827 0.000000
0.571595 0.207157 0.000000
0.618473 0.215425 0.000000
0.664042 0.223621 0.000000
0.709436 0.231254 0.000000
0.753146 0.238449 0.000000
0.795274 0.244756 0.000000
0.836754 0.250111 0.000000
0.877969 0.254390 0.000000
0.919147 0.257499 0.000000
0.959906 0.259493 0.000000
1.000000 0.260104 0.000000
0.000000 0.192347 0.000000
0.061673 0.193158 0.000000
0.123053 0.195532 0.000000
0.184436 0.199484 0.000000
0.244756 0.204726 0.000000
0.301185 0.211331 0.000000
0.356411 0.218879 0.000000
0.410810 0.227403 0.000000
0.464027 0.236632 0.000000
0.514031 0.246294 0.000000
0.562566 0.256167 0.000000
0.609572 0.265967 0.000000
0.655354 0.275738 0.000000
0.701300 0.284926 0.000000
0.745675 0.293565 0.000000
0.788669 0.301185 0.000000
0.831106 0.307728 0.000000
0.873658 0.312974 0.000000
0.916275 0.316734 0.000000
0.958425 0.319224 0.000000
1.000000 0.319944 0.000000
0.000000 0.233057 0.000000
0.059956 0.233923 0.000000
0.119681 0.236607 0.000000
0.179511 0.240931 0.000000
0.238449 0.246854 0.000000
0.293565 0.254325 0.000000
0.347708 0.262876 0.000000
0.401268 0.272611 0.000000
0.453970 0.283130 0.000000
0.503527 0.294147 0.000000
0.551987 0.305326 0.000000
0.599162 0.316467 0.000000
0.645256 0.327497 0.000000
0.691880 0.337964 0.000000
0.737124 0.347708 0.000000
0.781121 0.356411 0.000000
0.824652 0.363871 0.000000
0.868796 0.369804 0.000000
0.912986 0.374201 0.000000
0.956730 0.376966 0.000000
1.000000 0.377856 0.000000
0.000000 0.275315 0.000000
0.058035 0.276282 0.000000
0.115948 0.279244 0.000000
0.173908 0.284051 0.000000
0.231254 0.290564 0.000000
0.284926 0.298700 0.000000
0.337964 0.308120 0.000000
0.390598 0.318779 0.000000
0.442725 0.330319 0.000000
0.491840 0.342374 0.000000
0.540107 0.354711 0.000000
0.587429 0.366991 0.000000
0.633821 0.379098 0.000000
0.681221 0.390598 0.000000
0.727389 0.401268 0.000000
0.772597 0.410810 0.000000
0.817330 0.418882 0.000000
0.863304 0.425298 0.000000
0.909231 0.430119 0.000000
0.954824 0.433111 0.000000
1.000000 0.434099 0.000000
0.000000 0.319679 0.000000
0.055976 0.320684 0.000000
0.111901 0.323862 0.000000
0.167951 0.328999 0.000000
0.223621 0.335958 0.000000
0.275738 0.344646 0.000000
0.327497 0.354744 0.000000
0.379098 0.366179 0.000000
0.430597 0.378545 0.000000
0.479117 0.391484 0.000000
0.527234 0.404677 0.000000
0.574713 0.417804 0.000000
0.621455 0.430597 0.000000
0.669681 0.442725 0.000000
0.716870 0.453970 0.000000
0.763368 0.464027 0.000000
0.809384 0.472399 0.000000
0.857360 0.479054 0.000000
0.905147 0.484146 0.000000
0.952733 0.487257 0.000000
1.000000 0.488305 0.000000
0.000000 0.364727 0.000000
0.053787 0.365781 0.000000
0.107626 0.369067 0.000000
0.161596 0.374343 0.000000
0.215425 0.381527 0.000000
0.265967 0.390428 0.000000
0.316467 0.400838 0.000000
0.366991 0.412571 0.000000
0.417804 0.425287 0.000000
0.465828 0.438582 0.000000
0.513773 0.452207 0.000000
0.561418 0.465828 0.000000
0.608516 0.479117 0.000000
0.657626 0.491840 0.000000
0.705853 0.503527 0.000000
0.753706 0.514031 0.000000
0.801173 0.522843 0.000000
0.851105 0.529905 0.000000
0.900892 0.535215 0.000000
0.950573 0.538458 0.000000
1.000000 0.539558 0.000000
0.000000 0.411374 0.000000
0.051610 0.412439 0.000000
0.103376 0.415788 0.000000
0.155279 0.421128 0.000000
0.207157 0.428405 0.000000
0.256167 0.437434 0.000000
0.305326 0.448013 0.000000
0.354711 0.459893 0.000000
0.404677 0.472766 0.000000
0.452207 0.486227 0.000000
0.500000 0.500000 0.000000
0.547793 0.513773 0.000000
0.595323 0.527234 0.000000
0.645289 0.540107 0.000000
0.694674 0.551987 0.000000
0.743833 0.562566 0.000000
0.792843 0.571595 0.000000
0.844721 0.578872 0.000000
0.896624 0.584212 0.000000
0.948390 0.587561 0.000000
1.000000 0.588626 0.000000
0.000000 0.460442 0.000000
0.049427 0.461542 0.000000
0.099108 0.464785 0.000000
0.148895 0.470095 0.000000
0.198827 0.477157 0.000000
0.246294 0.485969 0.000000
0.294147 0.496473 0.000000
0.342374 0.508160 0.000000
0.391484 0.520883 0.000000
0.438582 0.534172 0.000000
0.486227 0.547793 0.000000
0.534172 0.561418 0.000000
0.582196 0.574713 0.000000
0.633009 0.587429 0.000000
0.683533 0.599162 0.000000
0.734033 0.609572 0.000000
0.784575 0.618473 0.000000
0.838404 0.625657 0.000000
0.892374 0.630933 0.000000
0.946213 0.634219 0.000000
1.000000 0.635273 0.000000
0.000000 0.511695 0.000000
0.047267 0.512743 0.000000
0.094853 0.515854 0.000000
0.142640 0.520946 0.000000
0.190616 0.527601 0.000000
0.236632 0.535973 0.000000
0.283130 0.546030 0.000000
0.330319 0.557275 0.000000
0.378545 0.569403 0.000000
0.425287 0.582196 0.000000
0.472766 0.595323 0.000000
0.520883 0.608516 0.000000
0.569403 0.621455 0.000000
0.620902 0.633821 0.000000
0.672503 0.645256 0.000000
0.724262 0.655354 0.000000
0.776379 0.664042 0.000000
0.832049 0.671001 0.000000
0.888099 0.676138 0.000000
0.944024 0.679316 0.000000
1.000000 0.680321 0.000000
0.000000 0.565901 0.000000
0.045176 0.566889 0.000000
0.090769 0.569881 0.000000
0.136696 0.574702 0.000000
0.182670 0.581118 0.000000
0.227403 0.589190 0.000000
0.272611 0.598732 0.000000
0.318779 0.609402 0.000000
0.366179 0.620902 0.000000
0.412571 0.633009 0.000000
0.459893 0.645289 0.000000
0.508160 0.657626 0.000000
0.557275 0.669681 0.000000
0.609402 0.681221 0.000000
0.662036 0.691880 0.000000
0.715074 0.701300 0.000000
0.768746 0.709436 0.000000
0.826092 0.715949 0.000000
0.884052 0.720756 0.000000
0.941965 0.723718 0.000000
1.000000 0.724685 0.000000
0.000000 0.622144 0.000000
0.043270 0.623034 0.000000
0.087014 0.625799 0.000000
0.131204 0.630196 0.000000
0.175348 0.636129 0.000000
0.218879 0.643589 0.000000
0.262876 0.652292 0.000000
0.308120 0.662036 0.000000
0.354744 0.672503 0.000000
0.400838 0.683533 0.000000
0.448013 0.694674 0.000000
0.496473 0.705853 0.000000
0.546030 0.716870 0.000000
0.598732 0.727389 0.000000
0.652292 0.737124 0.000000
0.706435 0.745675 0.000000
0.761551 0.753146 0.000000
0.820489 0.759069 0.000000
0.880319 0.763393 0.000000
0.940044 0.766077 0.000000
1.000000 0.766943 0.000000
0.000000 0.680056 0.000000
0.041575 0.680776 0.000000
0.083725 0.683266 0.000000
0.126342 0.687026 0.000000
0.168894 0.692272 0.000000
0.211331 0.698815 0.000000
0.254325 0.706435 0.000000
0.298700 0.715074 0.000000
0.344646 0.724262 0.000000
0.390428 0.734033 0.000000
0.437434 0.743833 0.000000
0.485969 0.753706 0.000000
0.535973 0.763368 0.000000
0.589190 0.772597 0.000000
0.643589 0.781121 0.000000
0.698815 0.788669 0.000000
0.755244 0.795274 0.000000
0.815564 0.800516 0.000000
0.876947 0.804468 0.000000
0.938327 0.806842 0.000000
1.000000 0.807653 0.000000
0.000000 0.739896 0.000000
0.040094 0.740507 0.000000
0.080853 0.742501 0.000000
0.122031 0.745610 0.000000
0.163246 0.749889 0.000000
0.204726 0.755244 0.000000
0.246854 0.761551 0.000000
0.290564 0.768746 0.000000
0.335958 0.776379 0.000000
0.381527 0.784575 0.000000
0.428405 0.792843 0.000000
0.477157 0.801173 0.000000
0.527601 0.809384 0.000000
0.581118 0.817330 0.000000
0.636129 0.824652 0.000000
0.692272 0.831106 0.000000
0.749889 0.836754 0.000000
0.811352 0.841026 0.000000
0.874057 0.844265 0.000000
0.936870 0.846137 0.000000
1.000000 0.846827 0.000000
0.000000 0.803465 0.000000
0.038946 0.803915 0.000000
0.078649 0.805538 0.000000
0.118600 0.807898 0.000000
0.158974 0.811352 0.000000
0.199484 0.815564 0.000000
0.240931 0.820489 0.000000
0.284051 0.826092 0.000000
0.328999 0.832049 0.000000
0.374343 0.838404 0.000000
0.421128 0.844721 0.000000
0.470095 0.851105 0.000000
0.520946 0.857360 0.000000
0.574702 0.863304 0.000000
0.630196 0.868796 0.000000
0.687026 0.873658 0.000000
0.745610 0.877969 0.000000
0.807898 0.881400 0.000000
0.871723 0.883983 0.000000
0.935673 0.885531 0.000000
1.000000 0.886064 0.000000
0.000000 0.868675 0.000000
0.038070 0.869019 0.000000
0.077017 0.870077 0.000000
0.116017 0.871723 0.000000
0.155735 0.874057 0.000000
0.195532 0.876947 0.000000
0.236607 0.880319 0.000000
0.279244 0.884052 0.000000
0.323862 0.888099 0.000000
0.369067 0.892374 0.000000
0.415788 0.896624 0.000000
0.464785 0.900892 0.000000
0.515854 0.905147 0.000000
0.569881 0.909231 0.000000
0.625799 0.912986 0.000000
0.683266 0.916275 0.000000
0.742501 0.919147 0.000000
0.805538 0.921351 0.000000
0.870077 0.922983 0.000000
0.934834 0.923973 0.000000
1.000000 0.924313 0.000000
0.000000 0.934131 0.000000
0.037576 0.934294 0.000000
0.076027 0.934834 0.000000
0.114469 0.935673 0.000000
0.153863 0.936870 0.000000
0.193158 0.938327 0.000000
0.233923 0.940044 0.000000
0.276282 0.941965 0.000000
0.320684 0.944024 0.000000
0.365781 0.946213 0.000000
0.412439 0.948390 0.000000
0.461542 0.950573 0.000000
0.512743 0.952733 0.000000
0.566889 0.954824 0.000000
0.623034 0.956730 0.000000
0.680776 0.958425 0.000000
0.740507 0.959906 0.000000
0.803915 0.961054 0.000000
0.869019 0.961930 0.000000
0.934294 0.962424 0.000000
1.000000 0.962617 0.000000
0.000000 1.000000 0.000000
0.037383 1.000000 0.000000
0.075687 1.000000 0.000000
0.113936 1.000000 0.000000
0.153173 1.000000 0.000000
0.192347 1.000000 0.000000
0.233057 1.000000 0.000000
0.275315 1.000000 0.000000
0.319679 1.000000 0.000000
0.364727 1.000000 0.000000
0.411374 1.000000 0.000000
0.460442 1.000000 0.000000
0.511695 1.000000 0.000000
0.565901 1.000000 0.000000
0.622144 1.000000 0.000000
0.680056 1.000000 0.000000
0.739896 1.000000 0.000000
0.803465 1.000000 0.000000
0.868675 1.000000 0.000000
0.934131 1.000000 0.000000
1.000000 1.000000 0.000000
0.000000 0.000000 0.082500
0.065869 0.000000 0.082500
0.131325 0.000000 0.082500
0.196535 0.000000 0.082500
0.260104 0.000000 0.082500
0.319944 0.000000 0.082500
0.377856 0.000000 0.082500
0.434099 0.000000 0.082500
0.488305 0.000000 0.082500
0.539558 0.000000 0.082500
0.588626 0.000000 0.082500
0.635273 0.000000 0.082500
0.680321 0.000000 0.082500
0.724685 0.000000 0.082500
0.766943 0.000000 0.082500
0.807653 0.000000 0.082500
0.846827 0.000000 0.082500
0.886064 0.000000 0.082500
0.924313 0.000000 0.082500
0.962617 0.000000 0.082500
1.000000 0.000000 0.082500
0.000000 0.037383 0.082500
0.065706 0.037576 0.082500
0.130981 0.038070 0.082500
0.196085 0.038946 0.082500
0.259493 0.040094 0.082500
0.319224 0.041575 0.082500
0.376966 0.043270 0.082500
0.433111 0.045176 0.082500
0.487257 0.047267 0.082500
0.538458 0.049427 0.082500
0.587561 0.051610 0.082500
0.634219 0.053787 0.082500
0.679316 0.055976 0.082500
0.723718 0.058035 0.082500
0.766077 0.059956 0.082500
0.806842 0.061673 0.082500
0.846137 0.063130 0.082500
0.885531 0.064327 0.082500
0.923973 0.065166 0.082500
0.962424 0.065706 0.082500
1.000000 0.065869 0.082500
0.000000 0.075687 0.082500
0.065166 0.076027 0.082500
0.129923 0.077017 0.082500
0.194462 0.078649 0.082500
0.257499 0.080853 0.082500
0.316734 0.083725 0.082500
0.374201 0.087014 0.082500
0.430119 0.090769 0.082500
0.484146 0.094853 0.082500
0.535215 0.099108 0.082500
0.584212 0.103376 0.082500
0.630933 0.107626 0.082500
0.676138 0.111901 0.082500
0.720756 0.115948 0.082500
0.763393 0.119681 0.082500
0.804468 0.123053 0.082500
0.844265 0.125943 0.082500
0.883983 0.128277 0.082500
0.922983 0.129923 0.082500
0.961930 0.130981 0.082500
1.000000 0.131325 0.082500
0.000000 0.113936 0.082500
0.064327 0.114469 0.082500
0.128277 0.116017 0.082500
0.192102 0.118600 0.082500
0.254390 0.122031 0.082500
0.312974 0.126342 0.082500
0.369804 0.131204 0.082500
0.425298 0.136696 0.082500
0.479054 0.142640 0.082500
0.529905 0.148895 0.082500
0.578872 0.155279 0.082500
0.625657 0.161596 0.082500
0.671001 0.167951 0.082500
0.715949 0.173908 0.082500
0.759069 0.179511 0.082500
0.800516 0.184436 0.082500
0.841026 0.188648 0.082500
0.881400 0.192102 0.082500
0.921351 0.194462 0.082500
0.961054 0.196085 0.082500
1.000000 0.196535 0.082500
0.000000 0.153173 0.082500
0.063130 0.153863 0.082500
0.125943 0.155735 0.082500
0.188648 0.158974 0.082500
0.250111 0.163246 0.082500
0.307728 0.168894 0.082500
0.363871 0.175348 0.082500
0.418882 0.182670 0.082500
0.472399 0.190616 0.082500
0.522843 0.198827 0.082500
0.571595 0.207157 0.082500
0.618473 0.215425 0.082500
0.664042 0.223621 0.082500
0.709436 0.231254 0.082500
0.753146 0.238449 0.082500
0.795274 0.244756 0.082500
0.836754 0.250111 0.082500
0.877969 0.254390 0.082500
0.919147 0.257499 0.082500
0.959906 0.259493 0.082500
1.000000 0.260104 0.082500
0.000000 0.192347 0.082500
0.061673 0.193158 0.082500
0.123053 0.195532 0.082500
0.184436 0.199484 0.082500
0.244756 0.204726 0.082500
0.301185 0.211331 0.082500
0.356411 0.218879 0.082500
0.410810 0.227403 0.082500
0.464027 0.236632 0.082500
0.514031 0.246294 0.082500
0.562566 0.256167 0.082500
0.609572 0.265967 0.082500
0.655354 0.275738 0.082500
0.701300 0.284926 0.082500
0.745675 0.293565 0.082500
0.788669 0.301185 0.082500
0.831106 0.307728 0.082500
0.873658 0.312974 0.082500
0.916275 0.316734 0.082500
0.958425 0.319224 0.082500
1.000000 0.319944 0.082500
0.000000 0.233057 0.082500
0.059956 0.233923 0.082500
0.119681 0.236607 0.082500
0.179511 0.240931 0.082500
0.238449 0.246854 0.082500
0.293565 0.254325 0.082500
0.347708 0.262876 0.082500
0.401268 0.272611 0.082500
0.453970 0.283130 0.082500
0.503527 0.294147 0.082500
0.551987 0.305326 0.082500
0.599162 0.316467 0.082500
0.645256 0.327497 0.082500
0.691880 0.337964 0.082500
0.737124 0.347708 0.082500
0.781121 0.356411 0.082500
0.824652 0.363871 0.082500
0.868796 0.369804 0.082500
0.912986 0.374201 0.082500
0.956730 0.376966 0.082500
1.000000 0.377856 0.082500
0.000000 0.275315 0.082500
0.058035 0.276282 0.082500
0.115948 0.279244 0.082500
0.173908 0.284051 0.082500
0.231254 0.290564 0.082500
0.284926 0.298700 0.082500
0.337964 0.308120 0.082500
0.390598 0.318779 0.082500
0.442725 0.330319 0.082500
0.491840 0.342374 0.082500
0.540107 0.354711 0.082500
0.587429 0.366991 0.082500
0.633821 0.379098 0.082500
0.681221 0.390598 0.082500
0.727389 0.401268 0.082500
0.772597 0.410810 0.082500
0.817330 0.418882 0.082500
0.863304 0.425298 0.082500
0.909231 0.430119 0.082500
0.954824 0.433111 0.082500
1.000000 0.434099 0.082500
0.000000 0.319679 0.082500
0.055976 0.320684 0.082500
0.111901 0.323862 0.082500
0.167951 0.328999 0.082500
0.223621 0.335958 0.082500
0.275738 0.344646 0.082500
0.327497 0.354744 0.082500
0.379098 0.366179 0.082500
0.430597 0.378545 0.082500
0.479117 0.391484 0.082500
0.527234 0.404677 0.082500
0.574713 0.417804 0.082500
0.621455 0.430597 0.082500
0.669681 0.442725 0.082500
0.716870 0.453970 0.082500
0.763368 0.464027 0.082500
0.809384 0.472399 0.082500
0.857360 0.479054 0.082500
0.905147 0.484146 0.082500
0.952733 0.487257 0.082500
1.000000 0.488305 0.082500
0.000000 0.364727 0.082500
0.053787 0.365781 0.082500
0.107626 0.369067 0.082500
0.161596 0.374343 0.082500
0.215425 0.381527 0.082500
0.265967 0.390428 0.082500
0.316467 0.400838 0.082500
0.366991 0.412571 0.082500
0.417804 0.425287 0.082500
0.465828 0.438582 0.082500
0.513773 0.452207 0.082500
0.561418 0.465828 0.082500
0.608516 0.479117 0.082500
0.657626 0.491840 0.082500
0.705853 0.503527 0.082500
0.753706 0.514031 0.082500
0.801173 0.522843 0.082500
0.851105 0.529905 0.082500
0.900892 0.535215 0.082500
0.950573 0.538458 0.082500
1.000000 0.539558 0.082500
0.000000 0.411374 0.082500
0.051610 0.412439 0.082500
0.103376 0.415788 0.082500
0.155279 0.421128 0.082500
0.207157 0.428405 0.082500
0.256167 0.437434 0.082500
0.305326 0.448013 0.082500
0.354711 0.459893 0.082500
0.404677 0.472766 0.082500
0.452207 0.486227 0.082500
0.500000 0.500000 0.082500
0.547793 0.513773 0.082500
0.595323 0.527234 0.082500
0.645289 0.540107 0.082500
0.694674 0.551987 0.082500
0.743833 0.562566 0.082500
0.792843 0.571595 0.082500
0.844721 0.578872 0.082500
0.896624 0.584212 0.082500
0.948390 0.587561 0.082500
1.000000 0.588626 0.082500
0.000000 0.460442 0.082500
0.049427 0.461542 0.082500
0.099108 0.464785 0.082500
0.148895 0.470095 0.082500
0.198827 0.477157 0.082500
0.246294 0.485969 0.082500
0.294147 0.496473 0.082500
0.342374 0.508160 0.082500
0.391484 0.520883 0.082500
0.438582 0.534172 0.082500
0.486227 0.547793 0.082500
0.534172 0.561418 0.082500
0.582196 0.574713 0.082500
0.633009 0.587429 0.082500
0.683533 0.599162 0.082500
0.734033 0.609572 0.082500
0.784575 0.618473 0.082500
0.838404 0.625657 0.082500
0.892374 0.630933 0.082500
0.946213 0.634219 0.082500
1.000000 0.635273 0.082500
0.000000 0.511695 0.082500
0.047267 0.512743 0.082500
0.094853 0.515854 0.082500
0.142640 0.520946 0.082500
0.190616 0.527601 0.082500
0.236632 0.535973 0.082500
0.283130 0.546030 0.082500
0.330319 0.557275 0.082500
0.378545 0.569403 0.082500
0.425287 0.582196 0.082500
0.472766 0.595323 0.082500
0.520883 0.608516 0.082500
0.569403 0.621455 0.082500
0.620902 0.633821 0.082500
0.672503 0.645256 0.082500
0.724262 0.655354 0.082500
0.776379 0.664042 0.082500
0.832049 0.671001 0.082500
0.888099 0.676138 0.082500
0.944024 0.679316 0.082500
1.000000 0.680321 0.082500
0.000000 0.565901 0.082500
0.045176 0.566889 0.082500
0.090769 0.569881 0.082500
0.136696 0.574702 0.082500
0.182670 0.581118 0.082500
0.227403 0.589190 0.082500
0.272611 0.598732 0.082500
0.318779 0.609402 0.082500
0.366179 0.620902 0.082500
0.412571 0.633009 0.082500
0.459893 0.645289 0.082500
0.508160 0.657626 0.082500
0.557275 0.669681 0.082500
0.609402 0.681221 0.082500
0.662036 0.691880 0.082500
0.715074 0.701300 0.082500
0.768746 0.709436 0.082500
0.826092 0.715949 0.082500
0.884052 0.720756 0.082500
0.941965 0.723718 0.082500
1.000000 0.724685 0.082500
0.000000 0.622144 0.082500
0.043270 0.623034 0.082500
0.087014 0.625799 0.082500
0.131204 0.630196 0.082500