# vtk DataFile Version 2.0
Mesh for Fierro
ASCII 
DATASET UNSTRUCTURED_GRID

POINTS 2205 float
0.000000 0.000000 0.000000
0.096114 0.000000 0.000000
0.188445 0.000000 0.000000
0.276659 0.000000 0.000000
0.358141 0.000000 0.000000
0.429832 0.000000 0.000000
0.494494 0.000000 0.000000
0.551898 0.000000 0.000000
0.603940 0.000000 0.000000
0.651836 0.000000 0.000000
0.695429 0.000000 0.000000
0.734570 0.000000 0.000000
0.770840 0.000000 0.000000
0.804661 0.000000 0.000000
0.835982 0.000000 0.000000
0.865901 0.000000 0.000000
0.893845 0.000000 0.000000
0.922114 0.000000 0.000000
0.947776 0.000000 0.000000
0.974406 0.000000 0.000000
1.000000 0.000000 0.000000
0.000000 0.025594 0.000000
0.095635 0.026113 0.000000
0.187543 0.027471 0.000000
0.275489 0.029797 0.000000
0.356779 0.032316 0.000000
0.428193 0.036134 0.000000
0.492670 0.040454 0.000000
0.549868 0.045117 0.000000
0.601820 0.050207 0.000000
0.649538 0.055435 0.000000
0.693047 0.060762 0.000000
0.732174 0.066195 0.000000
0.768419 0.071681 0.000000
0.802272 0.076787 0.000000
0.833636 0.081449 0.000000
0.863827 0.085662 0.000000
0.892067 0.089140 0.000000
0.920635 0.092135 0.000000
0.946852 0.094294 0.000000
0.973887 0.095635 0.000000
1.000000 0.096114 0.000000
0.000000 0.052224 0.000000
0.094294 0.053148 0.000000
0.184925 0.055451 0.000000
0.271654 0.059302 0.000000
0.352136 0.064780 0.000000
0.422848 0.072440 0.000000
0.486748 0.080840 0.000000
0.543378 0.089902 0.000000
0.594819 0.099642 0.000000
0.642248 0.109788 0.000000
0.685636 0.120190 0.000000
0.724708 0.130584 0.000000
0.761096 0.141243 0.000000
0.795406 0.151197 0.000000
0.827315 0.160101 0.000000
0.858277 0.168203 0.000000
0.887446 0.175078 0.000000
0.916987 0.180916 0.000000
0.944549 0.184925 0.000000
0.972529 0.187543 0.000000
1.000000 0.188445 0.000000
0.000000 0.077886 0.000000
0.092135 0.079365 0.000000
0.180916 0.083013 0.000000
0.265911 0.089780 0.000000
0.345065 0.097691 0.000000
0.414340 0.108372 0.000000
0.477093 0.120513 0.000000
0.532915 0.133813 0.000000
0.583832 0.148001 0.000000
0.630692 0.162768 0.000000
0.673788 0.178096 0.000000
0.712730 0.193315 0.000000
0.749066 0.208704 0.000000
0.783934 0.222979 0.000000
0.816755 0.236044 0.000000
0.848613 0.247632 0.000000
0.879672 0.257644 0.000000
0.910220 0.265911 0.000000
0.940698 0.271654 0.000000
0.970203 0.275489 0.000000
1.000000 0.276659 0.000000
0.000000 0.106155 0.000000
0.089140 0.107933 0.000000
0.175078 0.112554 0.000000
0.257644 0.120328 0.000000
0.334833 0.130378 0.000000
0.402049 0.144227 0.000000
0.463353 0.159794 0.000000
0.518333 0.176868 0.000000
0.568765 0.195168 0.000000
0.614884 0.214213 0.000000
0.657565 0.233909 0.000000
0.696638 0.253440 0.000000
0.733193 0.273058 0.000000
0.768996 0.291007 0.000000
0.803133 0.307605 0.000000
0.836723 0.322238 0.000000
0.869622 0.334833 0.000000
0.902309 0.345065 0.000000
0.935220 0.352136 0.000000
0.967684 0.356779 0.000000
1.000000 0.358141 0.000000
0.000000 0.134099 0.000000
0.085662 0.136173 0.000000
0.168203 0.141723 0.000000
0.247632 0.151387 0.000000
0.322238 0.163277 0.000000
0.387006 0.179123 0.000000
0.446487 0.197329 0.000000
0.500469 0.217382 0.000000
0.550301 0.238740 0.000000
0.595470 0.260860 0.000000
0.637439 0.283790 0.000000
0.676513 0.306443 0.000000
0.713195 0.329050 0.000000
0.749788 0.350192 0.000000
0.785299 0.369603 0.000000
0.820877 0.387006 0.000000
0.855773 0.402049 0.000000
0.891628 0.414340 0.000000
0.927560 0.422848 0.000000
0.963866 0.428193 0.000000
1.000000 0.429832 0.000000
0.000000 0.164018 0.000000
0.081449 0.166364 0.000000
0.160101 0.172685 0.000000
0.236044 0.183245 0.000000
0.307605 0.196867 0.000000
0.369603 0.214701 0.000000
0.426953 0.235010 0.000000
0.479490 0.257354 0.000000
0.528288 0.281185 0.000000
0.572418 0.305858 0.000000
0.613843 0.331415 0.000000
0.653021 0.356633 0.000000
0.690133 0.381690 0.000000
0.727809 0.405283 0.000000
0.764990 0.426953 0.000000
0.802671 0.446487 0.000000
0.840206 0.463353 0.000000
0.879487 0.477093 0.000000
0.919160 0.486748 0.000000
0.959546 0.492670 0.000000
1.000000 0.494494 0.000000
0.000000 0.195339 0.000000
0.076787 0.197728 0.000000
0.151197 0.204594 0.000000
0.222979 0.216066 0.000000
0.291007 0.231004 0.000000
0.350192 0.250212 0.000000
0.405283 0.272191 0.000000
0.456127 0.296389 0.000000
0.503751 0.322198 0.000000
0.546891 0.349020 0.000000
0.587680 0.376752 0.000000
0.626849 0.404013 0.000000
0.664570 0.430774 0.000000
0.703611 0.456127 0.000000
0.742646 0.479490 0.000000
0.782618 0.500469 0.000000
0.823132 0.518333 0.000000
0.866187 0.532915 0.000000
0.910098 0.543378 0.000000
0.954883 0.549868 0.000000
1.000000 0.551898 0.000000
0.000000 0.229160 0.000000
0.071681 0.231581 0.000000
0.141243 0.238904 0.000000
0.208704 0.250934 0.000000
0.273058 0.266807 0.000000
0.329050 0.286805 0.000000
0.381690 0.309867 0.000000
0.430774 0.335430 0.000000
0.477384 0.362875 0.000000
0.519321 0.391281 0.000000
0.559491 0.420628 0.000000
0.598716 0.449414 0.000000
0.637125 0.477384 0.000000
0.677802 0.503751 0.000000
0.718815 0.528288 0.000000
0.761260 0.550301 0.000000
0.804832 0.568765 0.000000
0.851999 0.583832 0.000000
0.900358 0.594819 0.000000
0.949793 0.601820 0.000000
1.000000 0.603940 0.000000
0.000000 0.265430 0.000000
0.066195 0.267826 0.000000
0.130584 0.275292 0.000000
0.193315 0.287270 0.000000
0.253440 0.303362 0.000000
0.306443 0.323487 0.000000
0.356633 0.346979 0.000000
0.404013 0.373151 0.000000
0.449414 0.401284 0.000000
0.490434 0.430468 0.000000
0.530206 0.460593 0.000000
0.569532 0.490434 0.000000
0.608719 0.519321 0.000000
0.650980 0.546891 0.000000
0.694142 0.572418 0.000000
0.739140 0.595470 0.000000
0.785787 0.614884 0.000000
0.837232 0.630692 0.000000
0.890212 0.642248 0.000000
0.944565 0.649538 0.000000
1.000000 0.651836 0.000000
0.000000 0.304571 0.000000
0.060762 0.306953 0.000000
0.120190 0.314364 0.000000
0.178096 0.326212 0.000000
0.233909 0.342435 0.000000
0.283790 0.362561 0.000000
0.331415 0.386157 0.000000
0.376752 0.412320 0.000000
0.420628 0.440509 0.000000
0.460593 0.469794 0.000000
0.500000 0.500000 0.000000
0.539407 0.530206 0.000000
0.579372 0.559491 0.000000
0.623248 0.587680 0.000000
0.668585 0.613843 0.000000
0.716210 0.637439 0.000000
0.766091 0.657565 0.000000
0.821904 0.673788 0.000000
0.879810 0.685636 0.000000
0.939238 0.693047 0.000000
1.000000 0.695429 0.000000
0.000000 0.348164 0.000000
0.055435 0.350462 0.000000
0.109788 0.357752 0.000000
0.162768 0.369308 0.000000
0.214213 0.385116 0.000000
0.260860 0.404530 0.000000
0.305858 0.427582 0.000000
0.349020 0.453109 0.000000
0.391281 0.480679 0.000000
0.430468 0.509566 0.000000
0.469794 0.539407 0.000000
0.509566 0.569532 0.000000
0.550586 0.598716 0.000000
0.595987 0.626849 0.000000
0.643367 0.653021 0.000000
0.693557 0.676513 0.000000
0.746560 0.696638 0.000000
0.806685 0.712730 0.000000
0.869416 0.724708 0.000000
0.933805 0.732174 0.000000
1.000000 0.734570 0.000000
0.000000 0.396060 0.000000
0.050207 0.398180 0.000000
0.099642 0.405181 0.000000
0.148001 0.416168 0.000000
0.195168 0.431235 0.000000
0.238740 0.449699 0.000000
0.281185 0.471712 0.000000
0.322198 0.496249 0.000000
0.362875 0.522616 0.000000
0.401284 0.550586 0.000000
0.440509 0.579372 0.000000
0.480679 0.608719 0.000000
0.522616 0.637125 0.000000
0.569226 0.664570 0.000000
0.618310 0.690133 0.000000
0.670950 0.713195 0.000000
0.726942 0.733193 0.000000
0.791296 0.749066 0.000000
0.858757 0.761096 0.000000
0.928319 0.768419 0.000000
1.000000 0.770840 0.000000
0.000000 0.448102 0.000000
0.045117 0.450132 0.000000
0.089902 0.456622 0.000000
0.133813 0.467085 0.000000
0.176868 0.481667 0.000000
0.217382 0.499531 0.000000
0.257354 0.520510 0.000000
0.296389 0.543873 0.000000
0.335430 0.569226 0.000000
0.373151 0.595987 0.000000
0.412320 0.623248 0.000000
0.453109 0.650980 0.000000
0.496249 0.677802 0.000000
0.543873 0.703611 0.000000
0.594717 0.727809 0.000000
0.649808 0.749788 0.000000
0.708993 0.768996 0.000000
0.777021 0.783934 0.000000
0.848803 0.795406 0.000000
0.923213 0.802272 0.000000
1.000000 0.804661 0.000000
0.000000 0.505506 0.000000
0.040454 0.507330 0.000000
0.080840 0.513252 0.000000
0.120513 0.522907 0.000000
0.159794 0.536647 0.000000
0.197329 0.553513 0.000000
0.235010 0.573047 0.000000
0.272191 0.594717 0.000000
0.309867 0.618310 0.000000
0.346979 0.643367 0.000000
0.386157 0.668585 0.000000
0.427582 0.694142 0.000000
0.471712 0.718815 0.000000
0.520510 0.742646 0.000000
0.573047 0.764990 0.000000
0.630397 0.785299 0.000000
0.692395 0.803133 0.000000
0.763956 0.816755 0.000000
0.839899 0.827315 0.000000
0.918551 0.833636 0.000000
1.000000 0.835982 0.000000
0.000000 0.570168 0.000000
0.036134 0.571807 0.000000
0.072440 0.577152 0.000000
0.108372 0.585660 0.000000
0.144227 0.597951 0.000000
0.179123 0.612994 0.000000
0.214701 0.630397 0.000000
0.250212 0.649808 0.000000
0.286805 0.670950 0.000000
0.323487 0.693557 0.000000
0.362561 0.716210 0.000000
0.404530 0.739140 0.000000
0.449699 0.761260 0.000000
0.499531 0.782618 0.000000
0.553513 0.802671 0.000000
0.612994 0.820877 0.000000
0.677762 0.836723 0.000000
0.752368 0.848613 0.000000
0.831797 0.858277 0.000000
0.914338 0.863827 0.000000
1.000000 0.865901 0.000000
0.000000 0.641859 0.000000
0.032316 0.643221 0.000000
0.064780 0.647864 0.000000
0.097691 0.654935 0.000000
0.130378 0.665167 0.000000
0.163277 0.677762 0.000000
0.196867 0.692395 0.000000
0.231004 0.708993 0.000000
0.266807 0.726942 0.000000
0.303362 0.746560 0.000000
0.342435 0.766091 0.000000
0.385116 0.785787 0.000000
0.431235 0.804832 0.000000
0.481667 0.823132 0.000000
0.536647 0.840206 0.000000
0.597951 0.855773 0.000000
0.665167 0.869622 0.000000
0.742356 0.879672 0.000000
0.824922 0.887446 0.000000
0.910860 0.892067 0.000000
1.000000 0.893845 0.000000
0.000000 0.723341 0.000000
0.029797 0.724511 0.000000
0.059302 0.728346 0.000000
0.089780 0.734089 0.000000
0.120328 0.742356 0.000000
0.151387 0.752368 0.000000
0.183245 0.763956 0.000000
0.216066 0.777021 0.000000
0.250934 0.791296 0.000000
[...]
POINT_DATA 2205 
VECTORS pos float 
0.000000 0.000000 0.000000
0.096114 0.000000 0.000000
0.188445 0.000000 0.000000
0.276659 0.000000 0.000000
0.358141 0.000000 0.000000
0.429832 0.000000 0.000000
0.494494 0.000000 0.000000
0.551898 0.000000 0.000000
0.603940 0.000000 0.000000
0.651836 0.000000 0.000000
0.695429 0.000000 0.000000
0.734570 0.000000 0.000000
0.770840 0.000000 0.000000
0.804661 0.000000 0.000000
0.835982 0.000000 0.000000
0.865901 0.000000 0.000000
0.893845 0.000000 0.000000
0.922114 0.000000 0.000000
0.947776 0.000000 0.000000
0.974406 0.000000 0.000000
1.000000 0.000000 0.000000
0.000000 0.025594 0.000000
0.095635 0.026113 0.000000
0.187543 0.027471 0.000000
0.275489 0.029797 0.000000
0.356779 0.032316 0.000000
0.428193 0.036134 0.000000
0.492670 0.040454 0.000000
0.549868 0.045117 0.000000
0.601820 0.050207 0.000000
0.649538 0.055435 0.000000
0.693047 0.060762 0.000000
0.732174 0.066195 0.000000
0.768419 0.071681 0.000000
0.802272 0.076787 0.000000
0.833636 0.081449 0.000000
0.863827 0.085662 0.000000
0.892067 0.089140 0.000000
0.920635 0.092135 0.000000
0.946852 0.094294 0.000000
0.973887 0.095635 0.000000
1.000000 0.096114 0.000000
0.000000 0.052224 0.000000
0.094294 0.053148 0.000000
0.184925 0.055451 0.000000
0.271654 0.059302 0.000000
0.352136 0.064780 0.000000
0.422848 0.072440 0.000000
0.486748 0.080840 0.000000
0.543378 0.089902 0.000000
0.594819 0.099642 0.000000
0.642248 0.109788 0.000000
0.685636 0.120190 0.000000
0.724708 0.130584 0.000000
0.761096 0.141243 0.000000
0.795406 0.151197 0.000000
0.827315 0.160101 0.000000
0.858277 0.168203 0.000000
0.887446 0.175078 0.000000
0.916987 0.180916 0.000000
0.944549 0.184925 0.000000
0.972529 0.187543 0.000000
1.000000 0.188445 0.000000
0.000000 0.077886 0.000000
0.092135 0.079365 0.000000
0.180916 0.083013 0.000000
0.265911 0.089780 0.000000
0.345065 0.097691 0.000000
0.414340 0.108372 0.000000
0.477093 0.120513 0.000000
0.532915 0.133813 0.000000
0.583832 0.148001 0.000000
0.630692 0.162768 0.000000
0.673788 0.178096 0.000000
0.712730 0.193315 0.000000
0.749066 0.208704 0.000000
0.783934 0.222979 0.000000
0.816755 0.236044 0.000000
0.848613 0.247632 0.000000
0.879672 0.257644 0.000000
0.910220 0.265911 0.000000
0.940698 0.271654 0.000000
0.970203 0.275489 0.000000
1.000000 0.276659 0.000000
0.000000 0.106155 0.000000
0.089140 0.107933 0.000000
0.175078 0.112554 0.000000
0.257644 0.120328 0.000000
0.334833 0.130378 0.000000
0.402049 0.144227 0.000000
0.463353 0.159794 0.000000
0.518333 0.176868 0.000000
0.568765 0.195168 0.000000
0.614884 0.214213 0.000000
0.657565 0.233909 0.000000
0.696638 0.253440 0.000000
0.733193 0.273058 0.000000
0.768996 0.291007 0.000000
0.803133 0.307605 0.000000
0.836723 0.322238 0.000000
0.869622 0.334833 0.000000
0.902309 0.345065 0.000000
0.935220 0.352136 0.000000
0.967684 0.356779 0.000000
1.000000 0.358141 0.000000
0.000000 0.134099 0.000000
0.085662 0.136173 0.000000
0.168203 0.141723 0.000000
0.247632 0.151387 0.000000
0.322238 0.163277 0.000000
0.387006 0.179123 0.000000
0.446487 0.197329 0.000000
0.500469 0.217382 0.000000
0.550301 0.238740 0.000000
0.595470 0.260860 0.000000
0.637439 0.283790 0.000000
0.676513 0.306443 0.000000
0.713195 0.329050 0.000000
0.749788 0.350192 0.000000
0.785299 0.369603 0.000000
0.820877 0.387006 0.000000
0.855773 0.402049 0.000000
0.891628 0.414340 0.000000
0.927560 0.422848 0.000000
0.963866 0.428193 0.000000
1.000000 0.429832 0.000000
0.000000 0.164018 0.000000
0.081449 0.166364 0.000000
0.160101 0.172685 0.000000
0.236044 0.183245 0.000000
0.307605 0.196867 0.000000
0.369603 0.214701 0.000000
0.426953 0.235010 0.000000
0.479490 0.257354 0.000000
0.528288 0.281185 0.000000
0.572418 0.305858 0.000000
0.613843 0.331415 0.000000
0.653021 0.356633 0.000000
0.690133 0.381690 0.000000
0.727809 0.405283 0.000000
0.764990 0.426953 0.000000
0.802671 0.446487 0.000000
0.840206 0.463353 0.000000
0.879487 0.477093 0.000000
0.919160 0.486748 0.000000
0.959546 0.492670 0.000000
1.000000 0.494494 0.000000
0.000000 0.195339 0.000000
0.076787 0.197728 0.000000
0.151197 0.204594 0.000000
0.222979 0.216066 0.000000
0.291007 0.231004 0.000000
0.350192 0.250212 0.000000
0.405283 0.272191 0.000000
0.456127 0.296389 0.000000
0.503751 0.322198 0.000000
0.546891 0.349020 0.000000
0.587680 0.376752 0.000000
0.626849 0.404013 0.000000
0.664570 0.430774 0.000000
0.703611 0.456127 0.000000
0.742646 0.479490 0.000000
0.782618 0.500469 0.000000
0.823132 0.518333 0.000000
0.866187 0.532915 0.000000
0.910098 0.543378 0.000000
0.954883 0.549868 0.000000
1.000000 0.551898 0.000000
0.000000 0.229160 0.000000
0.071681 0.231581 0.000000
0.141243 0.238904 0.000000
0.208704 0.250934 0.000000
0.273058 0.266807 0.000000
0.329050 0.286805 0.000000
0.381690 0.309867 0.000000
0.430774 0.335430 0.000000
0.477384 0.362875 0.000000
0.519321 0.391281 0.000000
0.559491 0.420628 0.000000
0.598716 0.449414 0.000000
0.637125 0.477384 0.000000
0.677802 0.503751 0.000000
0.718815 0.528288 0.000000
0.761260 0.550301 0.000000
0.804832 0.568765 0.000000
0.851999 0.583832 0.000000
0.900358 0.594819 0.000000
0.949793 0.601820 0.000000
1.000000 0.603940 0.000000
0.000000 0.265430 0.000000
0.066195 0.267826 0.000000
0.130584 0.275292 0.000000
0.193315 0.287270 0.000000
0.253440 0.303362 0.000000
0.306443 0.323487 0.000000
0.356633 0.346979 0.000000
0.404013 0.373151 0.000000
0.449414 0.401284 0.000000
0.490434 0.430468 0.000000
0.530206 0.460593 0.000000
0.569532 0.490434 0.000000
0.608719 0.519321 0.000000
0.650980 0.546891 0.000000
0.694142 0.572418 0.000000
0.739140 0.595470 0.000000
0.785787 0.614884 0.000000
0.837232 0.630692 0.000000
0.890212 0.642248 0.000000
0.944565 0.649538 0.000000
1.000000 0.651836 0.000000
0.000000 0.304571 0.000000
0.060762 0.306953 0.000000
0.120190 0.314364 0.000000
0.178096 0.326212 0.000000
0.233909 0.342435 0.000000
0.283790 0.362561 0.000000
0.331415 0.386157 0.000000
0.376752 0.412320 0.000000
0.420628 0.440509 0.000000
0.460593 0.469794 0.000000
0.500000 0.500000 0.000000
0.539407 0.530206 0.000000
0.579372 0.559491 0.000000
0.623248 0.587680 0.000000
0.668585 0.613843 0.000000
0.716210 0.637439 0.000000
0.766091 0.657565 0.000000
0.821904 0.673788 0.000000
0.879810 0.685636 0.000000
0.939238 0.693047 0.000000
1.000000 0.695429 0.000000
0.000000 0.348164 0.000000
0.055435 0.350462 0.000000
0.109788 0.357752 0.000000
0.162768 0.369308 0.000000
0.214213 0.385116 0.000000
0.260860 0.404530 0.000000
0.305858 0.427582 0.000000
0.349020 0.453109 0.000000
0.391281 0.480679 0.000000
0.430468 0.509566 0.000000
0.469794 0.539407 0.000000
0.509566 0.569532 0.000000
0.550586 0.598716 0.000000
0.595987 0.626849 0.000000
0.643367 0.653021 0.000000
0.693557 0.676513 0.000000
0.746560 0.696638 0.000000
0.806685 0.712730 0.000000
0.869416 0.724708 0.000000
0.933805 0.732174 0.000000
1.000000 0.734570 0.000000
0.000000 0.396060 0.000000
0.050207 0.398180 0.000000
0.099642 0.405181 0.000000
0.148001 0.416168 0.000000
0.195168 0.431235 0.000000
0.238740 0.449699 0.000000
0.281185 0.471712 0.000000
0.322198 0.496249 0.000000
0.362875 0.522616 0.000000
0.401284 0.550586 0.000000
0.440509 0.579372 0.000000
0.480679 0.608719 0.000000
0.522616 0.637125 0.000000
0.569226 0.664570 0.000000
0.618310 0.690133 0.000000
0.670950 0.713195 0.000000
0.726942 0.733193 0.000000
0.791296 0.749066 0.000000
0.858757 0.761096 0.000000
0.928319 0.768419 0.000000
1.000000 0.770840 0.000000
0.000000 0.448102 0.000000
0.045117 0.450132 0.000000
0.089902 0.456622 0.000000
0.133813 0.467085 0.000000
0.176868 0.481667 0.000000
0.217382 0.499531 0.000000
0.257354 0.520510 0.000000
0.296389 0.543873 0.000000
0.335430 0.569226 0.000000
0.373151 0.595987 0.000000
0.412320 0.623248 0.000000
0.453109 0.650980 0.000000
0.496249 0.677802 0.000000
0.543873 0.703611 0.000000
0.594717 0.727809 0.000000
0.649808 0.749788 0.000000
0.708993 0.768996 0.000000
0.777021 0.783934 0.000000
0.848803 0.795406 0.000000
0.923213 0.802272 0.000000
1.000000 0.804661 0.000000
0.000000 0.505506 0.000000
0.040454 0.507330 0.000000
0.080840 0.513252 0.000000
0.120513 0.522907 0.000000
0.159794 0.536647 0.000000
0.197329 0.553513 0.000000
0.235010 0.573047 0.000000
0.272191 0.594717 0.000000
0.309867 0.618310 0.000000
0.346979 0.643367 0.000000
0.386157 0.668585 0.000000
0.427582 0.694142 0.000000
0.471712 0.718815 0.000000
0.520510 0.742646 0.000000
0.573047 0.764990 0.000000
0.630397 0.785299 0.000000
0.692395 0.803133 0.000000
0.763956 0.816755 0.000000
0.839899 0.827315 0.000000
0.918551 0.833636 0.000000
1.000000 0.835982 0.000000
0.000000 0.570168 0.000000
0.036134 0.571807 0.000000
0.072440 0.577152 0.000000
0.108372 0.585660 0.000000
0.144227 0.597951 0.000000
0.179123 0.612994 0.000000
0.214701 0.630397 0.000000
0.250212 0.649808 0.000000
0.286805 0.670950 0.000000
0.323487 0.693557 0.000000
0.362561 0.716210 0.000000
0.404530 0.739140 0.000000
0.449699 0.761260 0.000000
0.499531 0.782618 0.000000
0.553513 0.802671 0.000000
0.612994 0.820877 0.000000
0.677762 0.836723 0.000000
0.752368 0.848613 0.000000
0.831797 0.858277 0.000000
0.914338 0.863827 0.000000
1.000000 0.865901 0.000000
0.000000 0.641859 0.000000
0.032316 0.643221 0.000000
0.064780 0.647864 0.000000
0.097691 0.654935 0.000000
0.130378 0.665167 0.000000
0.163277 0.677762 0.000000
0.196867 0.692395 0.000000
0.231004 0.708993 0.000000
0.266807 0.726942 0.000000
0.303362 0.746560 0.000000
0.342435 0.766091 0.000000
0.385116 0.785787 0.000000
0.431235 0.804832 0.000000
0.481667 0.823132 0.000000
0.536647 0.840206 0.000000
0.597951 0.855773 0.000000
0.665167 0.869622 0.000000
0.742356 0.879672 0.000000
0.824922 0.887446 0.000000
0.910860 0.892067 0.000000
1.000000 0.893845 0.000000
0.000000 0.723341 0.000000
0.029797 0.724511 0.000000
0.059302 0.728346 0.000000
0.089780 0.734089 0.000000
0.120328 0.742356 0.000000
0.151387 0.752368 0.000000
0.183245 0.763956 0.000000
0.216066 0.777021 0.000000
0.250934 0.791296 0.000000
0.287270 0.806685 0.000000
0.326212 0.821904 0.000000
0.369308 0.837232 0.000000
0.416168 0.851999 0.000000
0.467085 0.866187 0.000000
0.522907 0.879487 0.000000
0.585660 0.891628 0.000000
0.654935 0.902309 0.000000
0.734089 0.910220 0.000000
0.819084 0.916987 0.000000
0.907865 0.920635 0.000000
1.000000 0.922114 0.000000
0.000000 0.811555 0.000000
0.027471 0.812457 0.000000
0.055451 0.815075 0.000000
0.083013 0.819084 0.000000
0.112554 0.824922 0.000000
0.141723 0.831797 0.000000
0.172685 0.839899 0.000000
0.204594 0.848803 0.000000
0.238904 0.858757 0.000000
0.275292 0.869416 0.000000
0.314364 0.879810 0.000000
0.357752 0.890212 0.000000
0.405181 0.900358 0.000000
0.456622 0.910098 0.000000
0.513252 0.919160 0.000000
0.577152 0.927560 0.000000
0.647864 0.935220 0.000000
0.728346 0.940698 0.000000
0.815075 0.944549 0.000000
0.905706 0.946852 0.000000
1.000000 0.947776 0.000000
0.000000 0.903886 0.000000
0.026113 0.904365 0.000000
0.053148 0.905706 0.000000
0.079365 0.907865 0.000000
0.107933 0.910860 0.000000
0.136173 0.914338 0.000000
0.166364 0.918551 0.000000
0.197728 0.923213 0.000000
0.231581 0.928319 0.000000
0.267826 0.933805 0.000000
0.306953 0.939238 0.000000
0.350462 0.944565 0.000000
0.398180 0.949793 0.000000
0.450132 0.954883 0.000000
0.507330 0.959546 0.000000
0.571807 0.963866 0.000000
0.643221 0.967684 0.000000
0.724511 0.970203 0.000000
0.812457 0.972529 0.000000
0.904365 0.973887 0.000000
1.000000 0.974406 0.000000
0.000000 1.000000 0.000000
0.025594 1.000000 0.000000
0.052224 1.000000 0.000000
0.077886 1.000000 0.000000
0.106155 1.000000 0.000000
0.134099 1.000000 0.000000
0.164018 1.000000 0.000000
0.195339 1.000000 0.000000
0.229160 1.000000 0.000000
0.265430 1.000000 0.000000
0.304571 1.000000 0.000000
0.348164 1.000000 0.000000
0.396060 1.000000 0.000000
0.448102 1.000000 0.000000
0.505506 1.000000 0.000000
0.570168 1.000000 0.000000
0.641859 1.000000 0.000000
0.723341 1.000000 0.000000
0.811555 1.000000 0.000000
0.903886 1.000000 0.000000
1.000000 1.000000 0.000000
0.000000 0.000000 0.082500
0.096114 0.000000 0.082500
0.188445 0.000000 0.082500
0.276659 0.000000 0.082500
0.358141 0.000000 0.082500
0.429832 0.000000 0.082500
0.494494 0.000000 0.082500
0.551898 0.000000 0.082500
0.603940 0.000000 0.082500
0.651836 0.000000 0.082500
0.695429 0.000000 0.082500
0.734570 0.000000 0.082500
0.770840 0.000000 0.082500
0.804661 0.000000 0.082500
0.835982 0.000000 0.082500
0.865901 0.000000 0.082500
0.893845 0.000000 0.082500
0.922114 0.000000 0.082500
0.947776 0.000000 0.082500
0.974406 0.000000 0.082500
1.000000 0.000000 0.082500
0.000000 0.025594 0.082500
0.095635 0.026113 0.082500
0.187543 0.027471 0.082500
0.275489 0.029797 0.082500
0.356779 0.032316 0.082500
0.428193 0.036134 0.082500
0.492670 0.040454 0.082500
0.549868 0.045117 0.082500
0.601820 0.050207 0.082500
0.649538 0.055435 0.082500
0.693047 0.060762 0.082500
0.732174 0.066195 0.082500
0.768419 0.071681 0.082500
0.802272 0.076787 0.082500
0.833636 0.081449 0.082500
0.863827 0.085662 0.082500
0.892067 0.089140 0.082500
0.920635 0.092135 0.082500
0.946852 0.094294 0.082500
0.973887 0.095635 0.082500
1.000000 0.096114 0.082500
0.000000 0.052224 0.082500
0.094294 0.053148 0.082500
0.184925 0.055451 0.082500
0.271654 0.059302 0.082500
0.352136 0.064780 0.082500
0.422848 0.072440 0.082500
0.486748 0.080840 0.082500
0.543378 0.089902 0.082500
0.594819 0.099642 0.082500
0.642248 0.109788 0.082500
0.685636 0.120190 0.082500
0.724708 0.130584 0.082500
0.761096 0.141243 0.082500
0.795406 0.151197 0.082500
0.827315 0.160101 0.082500
0.858277 0.168203 0.082500
0.887446 0.175078 0.082500
0.916987 0.180916 0.082500
0.944549 0.184925 0.082500
0.972529 0.187543 0.082500
1.000000 0.188445 0.082500
0.000000 0.077886 0.082500
0.092135 0.079365 0.082500
0.180916 0.083013 0.082500
0.265911 0.089780 0.082500
0.345065 0.097691 0.082500
0.414340 0.108372 0.082500
0.477093 0.120513 0.082500
0.532915 0.133813 0.082500
0.583832 0.148001 0.082500
0.630692 0.162768 0.082500
0.673788 0.178096 0.082500
0.712730 0.193315 0.082500
0.749066 0.208704 0.082500
0.783934 0.222979 0.082500
0.816755 0.236044 0.082500
0.848613 0.247632 0.082500
0.879672 0.257644 0.082500
0.910220 0.265911 0.082500
0.940698 0.271654 0.082500
0.970203 0.275489 0.082500
1.000000 0.276659 0.082500
0.000000 0.106155 0.082500
0.089140 0.107933 0.082500
0.175078 0.112554 0.082500
0.257644 0.120328 0.082500
0.334833 0.130378 0.082500
0.402049 0.144227 0.082500
0.463353 0.159794 0.082500
0.518333 0.176868 0.082500
0.568765 0.195168 0.082500
0.614884 0.214213 0.082500
0.657565 0.233909 0.082500
0.696638 0.253440 0.082500
0.733193 0.273058 0.082500
0.768996 0.291007 0.082500
0.803133 0.307605 0.082500
0.836723 0.322238 0.082500
0.869622 0.334833 0.082500
0.902309 0.345065 0.082500
0.935220 0.352136 0.082500
0.967684 0.356779 0.082500
1.000000 0.358141 0.082500
0.000000 0.134099 0.082500
0.085662 0.136173 0.082500
0.168203 0.141723 0.082500
0.247632 0.151387 0.082500
0.322238 0.163277 0.082500
0.387006 0.179123 0.082500
0.446487 0.197329 0.082500
0.500469 0.217382 0.082500
0.550301 0.238740 0.082500
0.595470 0.260860 0.082500
0.637439 0.283790 0.082500
0.676513 0.306443 0.082500
0.713195 0.329050 0.082500
0.749788 0.350192 0.082500
0.785299 0.369603 0.082500
0.820877 0.387006 0.082500
0.855773 0.402049 0.082500
0.891628 0.414340 0.082500
0.927560 0.422848 0.082500
0.963866 0.428193 0.082500
1.000000 0.429832 0.082500
0.000000 0.164018 0.082500
0.081449 0.166364 0.082500
0.160101 0.172685 0.082500
0.236044 0.183245 0.082500
0.307605 0.196867 0.082500
0.369603 0.214701 0.082500
0.426953 0.235010 0.082500
0.479490 0.257354 0.082500
0.528288 0.281185 0.082500
0.572418 0.305858 0.082500
0.613843 0.331415 0.082500
0.653021 0.356633 0.082500
0.690133 0.381690 0.082500
0.727809 0.405283 0.082500
0.764990 0.426953 0.082500
0.802671 0.446487 0.082500
0.840206 0.463353 0.082500
0.879487 0.477093 0.082500
0.919160 0.486748 0.082500
0.959546 0.492670 0.082500
1.000000 0.494494 0.082500
0.000000 0.195339 0.082500
0.076787 0.197728 0.082500
0.151197 0.204594 0.082500
0.222979 0.216066 0.082500
0.291007 0.231004 0.082500
0.350192 0.250212 0.082500
0.405283 0.272191 0.082500
0.456127 0.296389 0.082500
0.503751 0.322198 0.082500
0.546891 0.349020 0.082500
0.587680 0.376752 0.082500
0.626849 0.404013 0.082500
0.664570 0.430774 0.082500
0.703611 0.456127 0.082500
0.742646 0.479490 0.082500
0.782618 0.500469 0.082500
0.823132 0.518333 0.082500
0.866187 0.532915 0.082500
0.910098 0.543378 0.082500
0.954883 0.549868 0.082500
1.000000 0.551898 0.082500
0.000000 0.229160 0.082500
0.071681 0.231581 0.082500
0.141243 0.238904 0.082500
0.208704 0.250934 0.082500
0.273058 0.266807 0.082500
0.329050 0.286805 0.082500
0.381690 0.309867 0.082500
0.430774 0.335430 0.082500
0.477384 0.362875 0.082500
0.519321 0.391281 0.082500
0.559491 0.420628 0.082500
0.598716 0.449414 0.082500
0.637125 0.477384 0.082500
0.677802 0.503751 0.082500
0.718815 0.528288 0.082500
0.761260 0.550301 0.082500
0.804832 0.568765 0.082500
0.851999 0.583832 0.082500
0.900358 0.594819 0.082500
0.949793 0.601820 0.082500
1.000000 0.603940 0.082500
0.000000 0.265430 0.082500
0.066195 0.267826 0.082500
0.130584 0.275292 0.082500
0.193315 0.287270 0.082500
0.253440 0.303362 0.082500
0.306443 0.323487 0.082500
0.356633 0.346979 0.082500
0.404013 0.373151 0.082500
0.449414 0.401284 0.082500
0.490434 0.430468 0.082500
0.530206 0.460593 0.082500
0.569532 0.490434 0.082500
0.608719 0.519321 0.082500
0.650980 0.546891 0.082500
0.694142 0.572418 0.082500
0.739140 0.595470 0.082500
0.785787 0.614884 0.082500
0.837232 0.630692 0.082500
0.890212 0.642248 0.082500
0.944565 0.649538 0.082500
1.000000 0.651836 0.082500
0.000000 0.304571 0.082500
0.060762 0.306953 0.082500
0.120190 0.314364 0.082500
0.178096 0.326212 0.082500
0.233909 0.342435 0.082500
0.283790 0.362561 0.082500
0.331415 0.386157 0.082500
0.376752 0.412320 0.082500
0.420628 0.440509 0.082500
0.460593 0.469794 0.082500
0.500000 0.500000 0.082500
0.539407 0.530206 0.082500
0.579372 0.559491 0.082500
0.623248 0.587680 0.082500
0.668585 0.613843 0.082500
0.716210 0.637439 0.082500
0.766091 0.657565 0.082500
0.821904 0.673788 0.082500
0.879810 0.685636 0.082500
0.939238 0.693047 0.082500
1.000000 0.695429 0.082500
0.000000 0.348164 0.082500
0.055435 0.350462 0.082500
0.109788 0.357752 0.082500
0.162768 0.369308 0.082500
0.214213 0.385116 0.082500
0.260860 0.404530 0.082500
0.305858 0.427582 0.082500
0.349020 0.453109 0.082500
0.391281 0.480679 0.082500
0.430468 0.509566 0.082500
0.469794 0.539407 0.082500
0.509566 0.569532 0.082500
0.550586 0.598716 0.082500
0.595987 0.626849 0.082500
0.643367 0.653021 0.082500
0.693557 0.676513 0.082500
0.746560 0.696638 0.082500
0.806685 0.712730 0.082500
0.869416 0.724708 0.082500
0.933805 0.732174 0.082500
1.000000 0.734570 0.082500
0.000000 0.396060 0.082500
0.050207 0.398180 0.082500
0.099642 0.405181 0.082500
0.148001 0.416168 0.082500
0.195168 0.431235 0.082500
0.238740 0.449699 0.082500
0.281185 0.471712 0.082500
0.322198 0.496249 0.082500
0.362875 0.522616 0.082500
0.401284 0.550586 0.082500
0.440509 0.579372 0.082500
0.480679 0.608719 0.082500
0.522616 0.637125 0.082500
0.569226 0.664570 0.082500
0.618310 0.690133 0.082500
0.670950 0.713195 0.082500
0.726942 0.733193 0.082500
0.791296 0.749066 0.082500
0.858757 0.761096 0.082500
0.928319 0.768419 0.082500
1.000000 0.770840 0.082500
0.000000 0.448102 0.082500
0.045117 0.450132 0.082500
0.089902 0.456622 0.082500
0.133813 0.467085 0.082500
0.176868 0.481667 0.082500
0.217382 0.499531 0.082500
0.257354 0.520510 0.082500
0.296389 0.543873 0.082500
0.335430 0.569226 0.082500
0.373151 0.595987 0.082500
0.412320 0.623248 0.082500
0.453109 0.650980 0.082500
0.496249 0.677802 0.082500
0.543873 0.703611 0.082500
0.594717 0.727809 0.082500
0.649808 0.749788 0.082500
0.708993 0.768996 0.082500
0.777021 0.783934 0.082500
0.848803 0.795406 0.082500
0.923213 0.802272 0.082500
1.000000 0.804661 0.082500
0.000000 0.505506 0.082500
0.040454 0.507330 0.082500
0.080840 0.513252 0.082500
0.120513 0.522907 0.082500