# vtk DataFile Version 2.0
Mesh for Fierro
ASCII 
DATASET UNSTRUCTURED_GRID

POINTS 2205 float
0.000000 0.000000 0.000000
0.526939 0.000000 0.000000
0.904015 0.000000 0.000000
0.940754 0.000000 0.000000
0.949785 0.000000 0.000000
0.958421 0.000000 0.000000
0.965260 0.000000 0.000000
0.971538 0.000000 0.000000
0.976324 0.000000 0.000000
0.980237 0.000000 0.000000
0.983691 0.000000 0.000000
0.986142 0.000000 0.000000
0.987683 0.000000 0.000000
0.988633 0.000000 0.000000
0.989242 0.000000 0.000000
0.989805 0.000000 0.000000
0.990349 0.000000 0.000000
0.991399 0.000000 0.000000
0.993559 0.000000 0.000000
0.997588 0.000000 0.000000
1.000000 0.000000 0.000000
0.000000 0.002412 0.000000
0.584650 0.004983 0.000000
0.914489 0.043184 0.000000
0.908514 0.155920 0.000000
0.924683 0.192465 0.000000
0.933436 0.252149 0.000000
0.938716 0.310360 0.000000
0.939696 0.385519 0.000000
0.940282 0.458161 0.000000
0.942158 0.513240 0.000000
0.944559 0.566228 0.000000
0.947593 0.612917 0.000000
0.951589 0.645491 0.000000
0.956061 0.672491 0.000000
0.960950 0.692551 0.000000
0.965843 0.709716 0.000000
0.971639 0.713977 0.000000
0.978951 0.696316 0.000000
0.987287 0.655508 0.000000
0.995017 0.584650 0.000000
1.000000 0.526939 0.000000
0.000000 0.006441 0.000000
0.655508 0.012713 0.000000
0.905588 0.083632 0.000000
0.879417 0.220220 0.000000
0.912321 0.287972 0.000000
0.914563 0.427007 0.000000
0.909937 0.538792 0.000000
0.908980 0.622635 0.000000
0.901252 0.688719 0.000000
0.897145 0.727715 0.000000
0.885689 0.755238 0.000000
0.875078 0.770654 0.000000
0.878702 0.785505 0.000000
0.879519 0.801089 0.000000
0.879968 0.816712 0.000000
0.880739 0.832882 0.000000
0.883084 0.851636 0.000000
0.894476 0.877944 0.000000
0.916368 0.905588 0.000000
0.956816 0.914489 0.000000
1.000000 0.904015 0.000000
0.000000 0.008601 0.000000
0.696316 0.021049 0.000000
0.877944 0.105524 0.000000
0.879656 0.277347 0.000000
0.892440 0.425064 0.000000
0.882978 0.531028 0.000000
0.874477 0.612525 0.000000
0.851787 0.669147 0.000000
0.817780 0.708443 0.000000
0.786471 0.739328 0.000000
0.738432 0.772061 0.000000
0.696822 0.804425 0.000000
0.690494 0.822329 0.000000
0.686102 0.838054 0.000000
0.686380 0.852013 0.000000
0.690512 0.864674 0.000000
0.698048 0.874905 0.000000
0.722653 0.879656 0.000000
0.779780 0.879417 0.000000
0.844080 0.908514 0.000000
1.000000 0.940754 0.000000
0.000000 0.009651 0.000000
0.713977 0.028361 0.000000
0.851636 0.116916 0.000000
0.874905 0.301952 0.000000
0.853255 0.471213 0.000000
0.852472 0.547757 0.000000
0.831557 0.638158 0.000000
0.767708 0.696430 0.000000
0.714116 0.731398 0.000000
0.671251 0.756747 0.000000
0.637975 0.773116 0.000000
0.607658 0.778222 0.000000
0.576799 0.785567 0.000000
0.552881 0.796274 0.000000
0.536514 0.810177 0.000000
0.526015 0.827515 0.000000
0.528787 0.853255 0.000000
0.574936 0.892440 0.000000
0.712028 0.912321 0.000000
0.807535 0.924683 0.000000
1.000000 0.949785 0.000000
0.000000 0.010195 0.000000
0.709716 0.034157 0.000000
0.832882 0.119261 0.000000
0.864674 0.309488 0.000000
0.827515 0.473985 0.000000
0.821548 0.567610 0.000000
0.793300 0.645423 0.000000
0.719070 0.684160 0.000000
0.664615 0.710131 0.000000
0.614544 0.728814 0.000000
0.555638 0.733145 0.000000
0.501912 0.740846 0.000000
0.456578 0.750828 0.000000
0.432990 0.769670 0.000000
0.421081 0.791526 0.000000
0.432390 0.821548 0.000000
0.452243 0.852472 0.000000
0.468972 0.882978 0.000000
0.572993 0.914563 0.000000
0.747851 0.933436 0.000000
1.000000 0.958421 0.000000
0.000000 0.010758 0.000000
0.692551 0.039050 0.000000
0.816712 0.120032 0.000000
0.852013 0.313620 0.000000
0.810177 0.463486 0.000000
0.791526 0.578919 0.000000
0.744779 0.641697 0.000000
0.675105 0.662390 0.000000
0.615805 0.685891 0.000000
0.559222 0.694171 0.000000
0.505568 0.693151 0.000000
0.461958 0.699505 0.000000
0.422577 0.700293 0.000000
0.386619 0.717759 0.000000
0.358303 0.744779 0.000000
0.354577 0.793300 0.000000
0.361842 0.831557 0.000000
0.387475 0.874477 0.000000
0.461208 0.909937 0.000000
0.689640 0.938716 0.000000
1.000000 0.965260 0.000000
0.000000 0.011367 0.000000
0.672491 0.043939 0.000000
0.801089 0.120481 0.000000
0.838054 0.313898 0.000000
0.796274 0.447119 0.000000
0.769670 0.567010 0.000000
0.717759 0.613381 0.000000
0.651205 0.634027 0.000000
0.589816 0.650179 0.000000
0.536180 0.649933 0.000000
0.483825 0.644067 0.000000
0.438310 0.638447 0.000000
0.398620 0.636906 0.000000
0.365973 0.651205 0.000000
0.337610 0.675105 0.000000
0.315840 0.719070 0.000000
0.303570 0.767708 0.000000
0.330853 0.851787 0.000000
0.377365 0.908980 0.000000
0.614481 0.939696 0.000000
1.000000 0.971538 0.000000
0.000000 0.012317 0.000000
0.645491 0.048411 0.000000
0.785505 0.121298 0.000000
0.822329 0.309506 0.000000
0.785567 0.423201 0.000000
0.750828 0.543422 0.000000
0.700293 0.577423 0.000000
0.636906 0.601380 0.000000
0.576896 0.604620 0.000000
0.525995 0.603312 0.000000
0.480468 0.594037 0.000000
0.437753 0.584401 0.000000
0.395380 0.576896 0.000000
0.349821 0.589816 0.000000
0.314109 0.615805 0.000000
0.289869 0.664615 0.000000
0.268602 0.714116 0.000000
0.291557 0.817780 0.000000
0.311281 0.901252 0.000000
0.541839 0.940282 0.000000
1.000000 0.976324 0.000000
0.000000 0.013858 0.000000
0.612917 0.052407 0.000000
0.770654 0.124922 0.000000
0.804425 0.303178 0.000000
0.778222 0.392342 0.000000
0.740846 0.498088 0.000000
0.699505 0.538042 0.000000
0.638447 0.561690 0.000000
0.584401 0.562247 0.000000
0.533514 0.558268 0.000000
0.486585 0.545297 0.000000
0.441732 0.533514 0.000000
0.396688 0.525995 0.000000
0.350067 0.536180 0.000000
0.305829 0.559222 0.000000
0.271186 0.614544 0.000000
0.243253 0.671251 0.000000
0.260672 0.786471 0.000000
0.272285 0.897145 0.000000
0.486760 0.942158 0.000000
1.000000 0.980237 0.000000
0.000000 0.016309 0.000000
0.566228 0.055441 0.000000
0.755238 0.114311 0.000000
0.772061 0.261568 0.000000
0.773116 0.362025 0.000000
0.733145 0.444362 0.000000
0.693151 0.494432 0.000000
0.644067 0.516175 0.000000
0.594037 0.519532 0.000000
0.545297 0.513415 0.000000
0.500000 0.500000 0.000000
0.454703 0.486585 0.000000
0.405963 0.480468 0.000000
0.355933 0.483825 0.000000
0.306849 0.505568 0.000000
0.266855 0.555638 0.000000
0.226884 0.637975 0.000000
0.227939 0.738432 0.000000
0.244762 0.885689 0.000000
0.433772 0.944559 0.000000
1.000000 0.983691 0.000000
0.000000 0.019763 0.000000
0.513240 0.057842 0.000000
0.727715 0.102855 0.000000
0.739328 0.213529 0.000000
0.756747 0.328749 0.000000
0.728814 0.385456 0.000000
0.694171 0.440778 0.000000
0.649933 0.463820 0.000000
0.603312 0.474005 0.000000
0.558268 0.466486 0.000000
0.513415 0.454703 0.000000
0.466486 0.441732 0.000000
0.415599 0.437753 0.000000
0.361553 0.438310 0.000000
0.300495 0.461958 0.000000
0.259154 0.501912 0.000000
0.221778 0.607658 0.000000
0.195575 0.696822 0.000000
0.229346 0.875078 0.000000
0.387083 0.947593 0.000000
1.000000 0.986142 0.000000
0.000000 0.023676 0.000000
0.458161 0.059718 0.000000
0.688719 0.098748 0.000000
0.708443 0.182220 0.000000
0.731398 0.285884 0.000000
0.710131 0.335385 0.000000
0.685891 0.384195 0.000000
0.650179 0.410184 0.000000
0.604620 0.423104 0.000000
0.562247 0.415599 0.000000
0.519532 0.405963 0.000000
0.474005 0.396688 0.000000
0.423104 0.395380 0.000000
0.363094 0.398620 0.000000
0.299707 0.422577 0.000000
0.249172 0.456578 0.000000
0.214433 0.576799 0.000000
0.177671 0.690494 0.000000
0.214495 0.878702 0.000000
0.354509 0.951589 0.000000
1.000000 0.987683 0.000000
0.000000 0.028462 0.000000
0.385519 0.060304 0.000000
0.622635 0.091020 0.000000
0.669147 0.148213 0.000000
0.696430 0.232292 0.000000
0.684160 0.280930 0.000000
0.662390 0.324895 0.000000
0.634027 0.348795 0.000000
0.601380 0.363094 0.000000
0.561690 0.361553 0.000000
0.516175 0.355933 0.000000
0.463820 0.350067 0.000000
0.410184 0.349821 0.000000
0.348795 0.365973 0.000000
0.282241 0.386619 0.000000
0.230330 0.432990 0.000000
0.203726 0.552881 0.000000
0.161946 0.686102 0.000000
0.198911 0.879519 0.000000
0.327509 0.956061 0.000000
1.000000 0.988633 0.000000
0.000000 0.034740 0.000000
0.310360 0.061284 0.000000
0.538792 0.090063 0.000000
0.612525 0.125523 0.000000
0.638158 0.168443 0.000000
0.645423 0.206700 0.000000
0.641697 0.255221 0.000000
0.613381 0.282241 0.000000
0.577423 0.299707 0.000000
0.538042 0.300495 0.000000
0.494432 0.306849 0.000000
0.440778 0.305829 0.000000
0.384195 0.314109 0.000000
0.324895 0.337610 0.000000
0.255221 0.358303 0.000000
0.208474 0.421081 0.000000
0.189823 0.536514 0.000000
0.147987 0.686380 0.000000
0.183288 0.879968 0.000000
0.307449 0.960950 0.000000
1.000000 0.989242 0.000000
0.000000 0.041579 0.000000
0.252149 0.066564 0.000000
0.427007 0.085437 0.000000
0.531028 0.117022 0.000000
0.547757 0.147528 0.000000
0.567610 0.178452 0.000000
0.578919 0.208474 0.000000
0.567010 0.230330 0.000000
0.543422 0.249172 0.000000
0.498088 0.259154 0.000000
0.444362 0.266855 0.000000
0.385456 0.271186 0.000000
0.335385 0.289869 0.000000
0.280930 0.315840 0.000000
0.206700 0.354577 0.000000
0.178452 0.432390 0.000000
0.172485 0.526015 0.000000
0.135326 0.690512 0.000000
0.167118 0.880739 0.000000
0.290284 0.965843 0.000000
1.000000 0.989805 0.000000
0.000000 0.050215 0.000000
0.192465 0.075317 0.000000
0.287972 0.087679 0.000000
0.425064 0.107560 0.000000
0.471213 0.146745 0.000000
0.473985 0.172485 0.000000
0.463486 0.189823 0.000000
0.447119 0.203726 0.000000
0.423201 0.214433 0.000000
0.392342 0.221778 0.000000
0.362025 0.226884 0.000000
0.328749 0.243253 0.000000
0.285884 0.268602 0.000000
0.232292 0.303570 0.000000
0.168443 0.361842 0.000000
0.147528 0.452243 0.000000
0.146745 0.528787 0.000000
0.125095 0.698048 0.000000
0.148364 0.883084 0.000000
0.286023 0.971639 0.000000
1.000000 0.990349 0.000000
0.000000 0.059246 0.000000
0.155920 0.091486 0.000000
0.220220 0.120583 0.000000
0.277347 0.120344 0.000000
0.301952 0.125095 0.000000
0.309488 0.135326 0.000000
0.313620 0.147987 0.000000
0.313898 0.161946 0.000000
0.309506 0.177671 0.000000
[...]
POINT_DATA 2205 
VECTORS pos float 
0.000000 0.000000 0.000000
0.526939 0.000000 0.000000
0.904015 0.000000 0.000000
0.940754 0.000000 0.000000
0.949785 0.000000 0.000000
0.958421 0.000000 0.000000
0.965260 0.000000 0.000000
0.971538 0.000000 0.000000
0.976324 0.000000 0.000000
0.980237 0.000000 0.000000
0.983691 0.000000 0.000000
0.986142 0.000000 0.000000
0.987683 0.000000 0.000000
0.988633 0.000000 0.000000
0.989242 0.000000 0.000000
0.989805 0.000000 0.000000
0.990349 0.000000 0.000000
0.991399 0.000000 0.000000
0.993559 0.000000 0.000000
0.997588 0.000000 0.000000
1.000000 0.000000 0.000000
0.000000 0.002412 0.000000
0.584650 0.004983 0.000000
0.914489 0.043184 0.000000
0.908514 0.155920 0.000000
0.924683 0.192465 0.000000
0.933436 0.252149 0.000000
0.938716 0.310360 0.000000
0.939696 0.385519 0.000000
0.940282 0.458161 0.000000
0.942158 0.513240 0.000000
0.944559 0.566228 0.000000
0.947593 0.612917 0.000000
0.951589 0.645491 0.000000
0.956061 0.672491 0.000000
0.960950 0.692551 0.000000
0.965843 0.709716 0.000000
0.971639 0.713977 0.000000
0.978951 0.696316 0.000000
0.987287 0.655508 0.000000
0.995017 0.584650 0.000000
1.000000 0.526939 0.000000
0.000000 0.006441 0.000000
0.655508 0.012713 0.000000
0.905588 0.083632 0.000000
0.879417 0.220220 0.000000
0.912321 0.287972 0.000000
0.914563 0.427007 0.000000
0.909937 0.538792 0.000000
0.908980 0.622635 0.000000
0.901252 0.688719 0.000000
0.897145 0.727715 0.000000
0.885689 0.755238 0.000000
0.875078 0.770654 0.000000
0.878702 0.785505 0.000000
0.879519 0.801089 0.000000
0.879968 0.816712 0.000000
0.880739 0.832882 0.000000
0.883084 0.851636 0.000000
0.894476 0.877944 0.000000
0.916368 0.905588 0.000000
0.956816 0.914489 0.000000
1.000000 0.904015 0.000000
0.000000 0.008601 0.000000
0.696316 0.021049 0.000000
0.877944 0.105524 0.000000
0.879656 0.277347 0.000000
0.892440 0.425064 0.000000
0.882978 0.531028 0.000000
0.874477 0.612525 0.000000
0.851787 0.669147 0.000000
0.817780 0.708443 0.000000
0.786471 0.739328 0.000000
0.738432 0.772061 0.000000
0.696822 0.804425 0.000000
0.690494 0.822329 0.000000
0.686102 0.838054 0.000000
0.686380 0.852013 0.000000
0.690512 0.864674 0.000000
0.698048 0.874905 0.000000
0.722653 0.879656 0.000000
0.779780 0.879417 0.000000
0.844080 0.908514 0.000000
1.000000 0.940754 0.000000
0.000000 0.009651 0.000000
0.713977 0.028361 0.000000
0.851636 0.116916 0.000000
0.874905 0.301952 0.000000
0.853255 0.471213 0.000000
0.852472 0.547757 0.000000
0.831557 0.638158 0.000000
0.767708 0.696430 0.000000
0.714116 0.731398 0.000000
0.671251 0.756747 0.000000
0.637975 0.773116 0.000000
0.607658 0.778222 0.000000
0.576799 0.785567 0.000000
0.552881 0.796274 0.000000
0.536514 0.810177 0.000000
0.526015 0.827515 0.000000
0.528787 0.853255 0.000000
0.574936 0.892440 0.000000
0.712028 0.912321 0.000000
0.807535 0.924683 0.000000
1.000000 0.949785 0.000000
0.000000 0.010195 0.000000
0.709716 0.034157 0.000000
0.832882 0.119261 0.000000
0.864674 0.309488 0.000000
0.827515 0.473985 0.000000
0.821548 0.567610 0.000000
0.793300 0.645423 0.000000
0.719070 0.684160 0.000000
0.664615 0.710131 0.000000
0.614544 0.728814 0.000000
0.555638 0.733145 0.000000
0.501912 0.740846 0.000000
0.456578 0.750828 0.000000
0.432990 0.769670 0.000000
0.421081 0.791526 0.000000
0.432390 0.821548 0.000000
0.452243 0.852472 0.000000
0.468972 0.882978 0.000000
0.572993 0.914563 0.000000
0.747851 0.933436 0.000000
1.000000 0.958421 0.000000
0.000000 0.010758 0.000000
0.692551 0.039050 0.000000
0.816712 0.120032 0.000000
0.852013 0.313620 0.000000
0.810177 0.463486 0.000000
0.791526 0.578919 0.000000
0.744779 0.641697 0.000000
0.675105 0.662390 0.000000
0.615805 0.685891 0.000000
0.559222 0.694171 0.000000
0.505568 0.693151 0.000000
0.461958 0.699505 0.000000
0.422577 0.700293 0.000000
0.386619 0.717759 0.000000
0.358303 0.744779 0.000000
0.354577 0.793300 0.000000
0.361842 0.831557 0.000000
0.387475 0.874477 0.000000
0.461208 0.909937 0.000000
0.689640 0.938716 0.000000
1.000000 0.965260 0.000000
0.000000 0.011367 0.000000
0.672491 0.043939 0.000000
0.801089 0.120481 0.000000
0.838054 0.313898 0.000000
0.796274 0.447119 0.000000
0.769670 0.567010 0.000000
0.717759 0.613381 0.000000
0.651205 0.634027 0.000000
0.589816 0.650179 0.000000
0.536180 0.649933 0.000000
0.483825 0.644067 0.000000
0.438310 0.638447 0.000000
0.398620 0.636906 0.000000
0.365973 0.651205 0.000000
0.337610 0.675105 0.000000
0.315840 0.719070 0.000000
0.303570 0.767708 0.000000
0.330853 0.851787 0.000000
0.377365 0.908980 0.000000
0.614481 0.939696 0.000000
1.000000 0.971538 0.000000
0.000000 0.012317 0.000000
0.645491 0.048411 0.000000
0.785505 0.121298 0.000000
0.822329 0.309506 0.000000
0.785567 0.423201 0.000000
0.750828 0.543422 0.000000
0.700293 0.577423 0.000000
0.636906 0.601380 0.000000
0.576896 0.604620 0.000000
0.525995 0.603312 0.000000
0.480468 0.594037 0.000000
0.437753 0.584401 0.000000
0.395380 0.576896 0.000000
0.349821 0.589816 0.000000
0.314109 0.615805 0.000000
0.289869 0.664615 0.000000
0.268602 0.714116 0.000000
0.291557 0.817780 0.000000
0.311281 0.901252 0.000000
0.541839 0.940282 0.000000
1.000000 0.976324 0.000000
0.000000 0.013858 0.000000
0.612917 0.052407 0.000000
0.770654 0.124922 0.000000
0.804425 0.303178 0.000000
0.778222 0.392342 0.000000
0.740846 0.498088 0.000000
0.699505 0.538042 0.000000
0.638447 0.561690 0.000000
0.584401 0.562247 0.000000
0.533514 0.558268 0.000000
0.486585 0.545297 0.000000
0.441732 0.533514 0.000000
0.396688 0.525995 0.000000
0.350067 0.536180 0.000000
0.305829 0.559222 0.000000
0.271186 0.614544 0.000000
0.243253 0.671251 0.000000
0.260672 0.786471 0.000000
0.272285 0.897145 0.000000
0.486760 0.942158 0.000000
1.000000 0.980237 0.000000
0.000000 0.016309 0.000000
0.566228 0.055441 0.000000
0.755238 0.114311 0.000000
0.772061 0.261568 0.000000
0.773116 0.362025 0.000000
0.733145 0.444362 0.000000
0.693151 0.494432 0.000000
0.644067 0.516175 0.000000
0.594037 0.519532 0.000000
0.545297 0.513415 0.000000
0.500000 0.500000 0.000000
0.454703 0.486585 0.000000
0.405963 0.480468 0.000000
0.355933 0.483825 0.000000
0.306849 0.505568 0.000000
0.266855 0.555638 0.000000
0.226884 0.637975 0.000000
0.227939 0.738432 0.000000
0.244762 0.885689 0.000000
0.433772 0.944559 0.000000
1.000000 0.983691 0.000000
0.000000 0.019763 0.000000
0.513240 0.057842 0.000000
0.727715 0.102855 0.000000
0.739328 0.213529 0.000000
0.756747 0.328749 0.000000
0.728814 0.385456 0.000000
0.694171 0.440778 0.000000
0.649933 0.463820 0.000000
0.603312 0.474005 0.000000
0.558268 0.466486 0.000000
0.513415 0.454703 0.000000
0.466486 0.441732 0.000000
0.415599 0.437753 0.000000
0.361553 0.438310 0.000000
0.300495 0.461958 0.000000
0.259154 0.501912 0.000000
0.221778 0.607658 0.000000
0.195575 0.696822 0.000000
0.229346 0.875078 0.000000
0.387083 0.947593 0.000000
1.000000 0.986142 0.000000
0.000000 0.023676 0.000000
0.458161 0.059718 0.000000
0.688719 0.098748 0.000000
0.708443 0.182220 0.000000
0.731398 0.285884 0.000000
0.710131 0.335385 0.000000
0.685891 0.384195 0.000000
0.650179 0.410184 0.000000
0.604620 0.423104 0.000000
0.562247 0.415599 0.000000
0.519532 0.405963 0.000000
0.474005 0.396688 0.000000
0.423104 0.395380 0.000000
0.363094 0.398620 0.000000
0.299707 0.422577 0.000000
0.249172 0.456578 0.000000
0.214433 0.576799 0.000000
0.177671 0.690494 0.000000
0.214495 0.878702 0.000000
0.354509 0.951589 0.000000
1.000000 0.987683 0.000000
0.000000 0.028462 0.000000
0.385519 0.060304 0.000000
0.622635 0.091020 0.000000
0.669147 0.148213 0.000000
0.696430 0.232292 0.000000
0.684160 0.280930 0.000000
0.662390 0.324895 0.000000
0.634027 0.348795 0.000000
0.601380 0.363094 0.000000
0.561690 0.361553 0.000000
0.516175 0.355933 0.000000
0.463820 0.350067 0.000000
0.410184 0.349821 0.000000
0.348795 0.365973 0.000000
0.282241 0.386619 0.000000
0.230330 0.432990 0.000000
0.203726 0.552881 0.000000
0.161946 0.686102 0.000000
0.198911 0.879519 0.000000
0.327509 0.956061 0.000000
1.000000 0.988633 0.000000
0.000000 0.034740 0.000000
0.310360 0.061284 0.000000
0.538792 0.090063 0.000000
0.612525 0.125523 0.000000
0.638158 0.168443 0.000000
0.645423 0.206700 0.000000
0.641697 0.255221 0.000000
0.613381 0.282241 0.000000
0.577423 0.299707 0.000000
0.538042 0.300495 0.000000
0.494432 0.306849 0.000000
0.440778 0.305829 0.000000
0.384195 0.314109 0.000000
0.324895 0.337610 0.000000
0.255221 0.358303 0.000000
0.208474 0.421081 0.000000
0.189823 0.536514 0.000000
0.147987 0.686380 0.000000
0.183288 0.879968 0.000000
0.307449 0.960950 0.000000
1.000000 0.989242 0.000000
0.000000 0.041579 0.000000
0.252149 0.066564 0.000000
0.427007 0.085437 0.000000
0.531028 0.117022 0.000000
0.547757 0.147528 0.000000
0.567610 0.178452 0.000000
0.578919 0.208474 0.000000
0.567010 0.230330 0.000000
0.543422 0.249172 0.000000
0.498088 0.259154 0.000000
0.444362 0.266855 0.000000
0.385456 0.271186 0.000000
0.335385 0.289869 0.000000
0.280930 0.315840 0.000000
0.206700 0.354577 0.000000
0.178452 0.432390 0.000000
0.172485 0.526015 0.000000
0.135326 0.690512 0.000000
0.167118 0.880739 0.000000
0.290284 0.965843 0.000000
1.000000 0.989805 0.000000
0.000000 0.050215 0.000000
0.192465 0.075317 0.000000
0.287972 0.087679 0.000000
0.425064 0.107560 0.000000
0.471213 0.146745 0.000000
0.473985 0.172485 0.000000
0.463486 0.189823 0.000000
0.447119 0.203726 0.000000
0.423201 0.214433 0.000000
0.392342 0.221778 0.000000
0.362025 0.226884 0.000000
0.328749 0.243253 0.000000
0.285884 0.268602 0.000000
0.232292 0.303570 0.000000
0.168443 0.361842 0.000000
0.147528 0.452243 0.000000
0.146745 0.528787 0.000000
0.125095 0.698048 0.000000
0.148364 0.883084 0.000000
0.286023 0.971639 0.000000
1.000000 0.990349 0.000000
0.000000 0.059246 0.000000
0.155920 0.091486 0.000000
0.220220 0.120583 0.000000
0.277347 0.120344 0.000000
0.301952 0.125095 0.000000
0.309488 0.135326 0.000000
0.313620 0.147987 0.000000
0.313898 0.161946 0.000000
0.309506 0.177671 0.000000
0.303178 0.195575 0.000000
0.261568 0.227939 0.000000
0.213529 0.260672 0.000000
0.182220 0.291557 0.000000
0.148213 0.330853 0.000000
0.125523 0.387475 0.000000
0.117022 0.468972 0.000000
0.107560 0.574936 0.000000
0.120344 0.722653 0.000000
0.122056 0.894476 0.000000
0.303684 0.978951 0.000000
1.000000 0.991399 0.000000
0.000000 0.095985 0.000000
0.043184 0.085511 0.000000
0.083632 0.094412 0.000000
0.105524 0.122056 0.000000
0.116916 0.148364 0.000000
0.119261 0.167118 0.000000
0.120032 0.183288 0.000000
0.120481 0.198911 0.000000
0.121298 0.214495 0.000000
0.124922 0.229346 0.000000
0.114311 0.244762 0.000000
0.102855 0.272285 0.000000
0.098748 0.311281 0.000000
0.091020 0.377365 0.000000
0.090063 0.461208 0.000000
0.085437 0.572993 0.000000
0.087679 0.712028 0.000000
0.120583 0.779780 0.000000
0.094412 0.916368 0.000000
0.344492 0.987287 0.000000
1.000000 0.993559 0.000000
0.000000 0.473061 0.000000
0.004983 0.415350 0.000000
0.012713 0.344492 0.000000
0.021049 0.303684 0.000000
0.028361 0.286023 0.000000
0.034157 0.290284 0.000000
0.039050 0.307449 0.000000
0.043939 0.327509 0.000000
0.048411 0.354509 0.000000
0.052407 0.387083 0.000000
0.055441 0.433772 0.000000
0.057842 0.486760 0.000000
0.059718 0.541839 0.000000
0.060304 0.614481 0.000000
0.061284 0.689640 0.000000
0.066564 0.747851 0.000000
0.075317 0.807535 0.000000
0.091486 0.844080 0.000000
0.085511 0.956816 0.000000
0.415350 0.995017 0.000000
1.000000 0.997588 0.000000
0.000000 1.000000 0.000000
0.002412 1.000000 0.000000
0.006441 1.000000 0.000000
0.008601 1.000000 0.000000
0.009651 1.000000 0.000000
0.010195 1.000000 0.000000
0.010758 1.000000 0.000000
0.011367 1.000000 0.000000
0.012317 1.000000 0.000000
0.013858 1.000000 0.000000
0.016309 1.000000 0.000000
0.019763 1.000000 0.000000
0.023676 1.000000 0.000000
0.028462 1.000000 0.000000
0.034740 1.000000 0.000000
0.041579 1.000000 0.000000
0.050215 1.000000 0.000000
0.059246 1.000000 0.000000
0.095985 1.000000 0.000000
0.473061 1.000000 0.000000
1.000000 1.000000 0.000000
0.000000 0.000000 0.082500
0.526939 0.000000 0.082500
0.904015 0.000000 0.082500
0.940754 0.000000 0.082500
0.949785 0.000000 0.082500
0.958421 0.000000 0.082500
0.965260 0.000000 0.082500
0.971538 0.000000 0.082500
0.976324 0.000000 0.082500
0.980237 0.000000 0.082500
0.983691 0.000000 0.082500
0.986142 0.000000 0.082500
0.987683 0.000000 0.082500
0.988633 0.000000 0.082500
0.989242 0.000000 0.082500
0.989805 0.000000 0.082500
0.990349 0.000000 0.082500
0.991399 0.000000 0.082500
0.993559 0.000000 0.082500
0.997588 0.000000 0.082500
1.000000 0.000000 0.082500
0.000000 0.002412 0.082500
0.584650 0.004983 0.082500
0.914489 0.043184 0.082500
0.908514 0.155920 0.082500
0.924683 0.192465 0.082500
0.933436 0.252149 0.082500
0.938716 0.310360 0.082500
0.939696 0.385519 0.082500
0.940282 0.458161 0.082500
0.942158 0.513240 0.082500
0.944559 0.566228 0.082500
0.947593 0.612917 0.082500
0.951589 0.645491 0.082500
0.956061 0.672491 0.082500
0.960950 0.692551 0.082500
0.965843 0.709716 0.082500
0.971639 0.713977 0.082500
0.978951 0.696316 0.082500
0.987287 0.655508 0.082500
0.995017 0.584650 0.082500
1.000000 0.526939 0.082500
0.000000 0.006441 0.082500
0.655508 0.012713 0.082500
0.905588 0.083632 0.082500
0.879417 0.220220 0.082500
0.912321 0.287972 0.082500
0.914563 0.427007 0.082500
0.909937 0.538792 0.082500
0.908980 0.622635 0.082500
0.901252 0.688719 0.082500
0.897145 0.727715 0.082500
0.885689 0.755238 0.082500
0.875078 0.770654 0.082500
0.878702 0.785505 0.082500
0.879519 0.801089 0.082500
0.879968 0.816712 0.082500
0.880739 0.832882 0.082500
0.883084 0.851636 0.082500
0.894476 0.877944 0.082500
0.916368 0.905588 0.082500
0.956816 0.914489 0.082500
1.000000 0.904015 0.082500
0.000000 0.008601 0.082500
0.696316 0.021049 0.082500
0.877944 0.105524 0.082500
0.879656 0.277347 0.082500
0.892440 0.425064 0.082500
0.882978 0.531028 0.082500
0.874477 0.612525 0.082500
0.851787 0.669147 0.082500
0.817780 0.708443 0.082500
0.786471 0.739328 0.082500
0.738432 0.772061 0.082500
0.696822 0.804425 0.082500
0.690494 0.822329 0.082500
0.686102 0.838054 0.082500
0.686380 0.852013 0.082500
0.690512 0.864674 0.082500
0.698048 0.874905 0.082500
0.722653 0.879656 0.082500
0.779780 0.879417 0.082500
0.844080 0.908514 0.082500
1.000000 0.940754 0.082500
0.000000 0.009651 0.082500
0.713977 0.028361 0.082500
0.851636 0.116916 0.082500
0.874905 0.301952 0.082500
0.853255 0.471213 0.082500
0.852472 0.547757 0.082500
0.831557 0.638158 0.082500
0.767708 0.696430 0.082500
0.714116 0.731398 0.082500
0.671251 0.756747 0.082500
0.637975 0.773116 0.082500
0.607658 0.778222 0.082500
0.576799 0.785567 0.082500
0.552881 0.796274 0.082500
0.536514 0.810177 0.082500
0.526015 0.827515 0.082500
0.528787 0.853255 0.082500
0.574936 0.892440 0.082500
0.712028 0.912321 0.082500
0.807535 0.924683 0.082500
1.000000 0.949785 0.082500
0.000000 0.010195 0.082500
0.709716 0.034157 0.082500
0.832882 0.119261 0.082500
0.864674 0.309488 0.082500
0.827515 0.473985 0.082500
0.821548 0.567610 0.082500
0.793300 0.645423 0.082500
0.719070 0.684160 0.082500
0.664615 0.710131 0.082500
0.614544 0.728814 0.082500
0.555638 0.733145 0.082500
0.501912 0.740846 0.082500
0.456578 0.750828 0.082500
0.432990 0.769670 0.082500
0.421081 0.791526 0.082500
0.432390 0.821548 0.082500
0.452243 0.852472 0.082500
0.468972 0.882978 0.082500
0.572993 0.914563 0.082500
0.747851 0.933436 0.082500
1.000000 0.958421 0.082500
0.000000 0.010758 0.082500
0.692551 0.039050 0.082500
0.816712 0.120032 0.082500
0.852013 0.313620 0.082500
0.810177 0.463486 0.082500
0.791526 0.578919 0.082500
0.744779 0.641697 0.082500
0.675105 0.662390 0.082500
0.615805 0.685891 0.082500
0.559222 0.694171 0.082500
0.505568 0.693151 0.082500
0.461958 0.699505 0.082500
0.422577 0.700293 0.082500
0.386619 0.717759 0.082500
0.358303 0.744779 0.082500
0.354577 0.793300 0.082500
0.361842 0.831557 0.082500
0.387475 0.874477 0.082500
0.461208 0.909937 0.082500
0.689640 0.938716 0.082500
1.000000 0.965260 0.082500
0.000000 0.011367 0.082500
0.672491 0.043939 0.082500
0.801089 0.120481 0.082500
0.838054 0.313898 0.082500
0.796274 0.447119 0.082500
0.769670 0.567010 0.082500
0.717759 0.613381 0.082500
0.651205 0.634027 0.082500
0.589816 0.650179 0.082500
0.536180 0.649933 0.082500
0.483825 0.644067 0.082500
0.438310 0.638447 0.082500
0.398620 0.636906 0.082500
0.365973 0.651205 0.082500
0.337610 0.675105 0.082500
0.315840 0.719070 0.082500
0.303570 0.767708 0.082500
0.330853 0.851787 0.082500
0.377365 0.908980 0.082500
0.614481 0.939696 0.082500
1.000000 0.971538 0.082500
0.000000 0.012317 0.082500
0.645491 0.048411 0.082500
0.785505 0.121298 0.082500
0.822329 0.309506 0.082500
0.785567 0.423201 0.082500
0.750828 0.543422 0.082500
0.700293 0.577423 0.082500
0.636906 0.601380 0.082500
0.576896 0.604620 0.082500
0.525995 0.603312 0.082500
0.480468 0.594037 0.082500
0.437753 0.584401 0.082500
0.395380 0.576896 0.082500
0.349821 0.589816 0.082500
0.314109 0.615805 0.082500
0.289869 0.664615 0.082500
0.268602 0.714116 0.082500
0.291557 0.817780 0.082500
0.311281 0.901252 0.082500
0.541839 0.940282 0.082500
1.000000 0.976324 0.082500
0.000000 0.013858 0.082500
0.612917 0.052407 0.082500
0.770654 0.124922 0.082500
0.804425 0.303178 0.082500
0.778222 0.392342 0.082500
0.740846 0.498088 0.082500
0.699505 0.538042 0.082500
0.638447 0.561690 0.082500
0.584401 0.562247 0.082500
0.533514 0.558268 0.082500
0.486585 0.545297 0.082500
0.441732 0.533514 0.082500
0.396688 0.525995 0.082500
0.350067 0.536180 0.082500
0.305829 0.559222 0.082500
0.271186 0.614544 0.082500
0.243253 0.671251 0.082500
0.260672 0.786471 0.082500
0.272285 0.897145 0.082500
0.486760 0.942158 0.082500
1.000000 0.980237 0.082500
0.000000 0.016309 0.082500
0.566228 0.055441 0.082500
0.755238 0.114311 0.082500
0.772061 0.261568 0.082500
0.773116 0.362025 0.082500
0.733145 0.444362 0.082500
0.693151 0.494432 0.082500
0.644067 0.516175 0.082500
0.594037 0.519532 0.082500
0.545297 0.513415 0.082500
0.500000 0.500000 0.082500
0.454703 0.486585 0.082500
0.405963 0.480468 0.082500
0.355933 0.483825 0.082500
0.306849 0.505568 0.082500
0.266855 0.555638 0.082500
0.226884 0.637975 0.082500
0.227939 0.738432 0.082500
0.244762 0.885689 0.082500
0.433772 0.944559 0.082500
1.000000 0.983691 0.082500
0.000000 0.019763 0.082500
0.513240 0.057842 0.082500
0.727715 0.102855 0.082500
0.739328 0.213529 0.082500
0.756747 0.328749 0.082500
0.728814 0.385456 0.082500
0.694171 0.440778 0.082500
0.649933 0.463820 0.082500
0.603312 0.474005 0.082500
0.558268 0.466486 0.082500
0.513415 0.454703 0.082500
0.466486 0.441732 0.082500
0.415599 0.437753 0.082500
0.361553 0.438310 0.082500
0.300495 0.461958 0.082500
0.259154 0.501912 0.082500
0.221778 0.607658 0.082500
0.195575 0.696822 0.082500
0.229346 0.875078 0.082500
0.387083 0.947593 0.082500
1.000000 0.986142 0.082500
0.000000 0.023676 0.082500
0.458161 0.059718 0.082500
0.688719 0.098748 0.082500
0.708443 0.182220 0.082500
0.731398 0.285884 0.082500
0.710131 0.335385 0.082500
0.685891 0.384195 0.082500
0.650179 0.410184 0.082500
0.604620 0.423104 0.082500
0.562247 0.415599 0.082500
0.519532 0.405963 0.082500
0.474005 0.396688 0.082500
0.423104 0.395380 0.082500
0.363094 0.398620 0.082500
0.299707 0.422577 0.082500
0.249172 0.456578 0.082500
0.214433 0.576799 0.082500
0.177671 0.690494 0.082500
0.214495 0.878702 0.082500
0.354509 0.951589 0.082500
1.000000 0.987683 0.082500
0.000000 0.028462 0.082500
0.385519 0.060304 0.082500
0.622635 0.091020 0.082500
0.669147 0.148213 0.082500
0.696430 0.232292 0.082500
0.684160 0.280930 0.082500
0.662390 0.324895 0.082500
0.634027 0.348795 0.082500
0.601380 0.363094 0.082500
0.561690 0.361553 0.082500
0.516175 0.355933 0.082500
0.463820 0.350067 0.082500
0.410184 0.349821 0.082500
0.348795 0.365973 0.082500
0.282241 0.386619 0.082500
0.230330 0.432990 0.082500
0.203726 0.552881 0.082500
0.161946 0.686102 0.082500
0.198911 0.879519 0.082500
0.327509 0.956061 0.082500
1.000000 0.988633 0.082500
0.000000 0.034740 0.082500
0.310360 0.061284 0.082500
0.538792 0.090063 0.082500
0.612525 0.125523 0.082500