# vtk DataFile Version 2.0
Mesh for Fierro
ASCII 
DATASET UNSTRUCTURED_GRID

POINTS 2205 float
0.000000 0.000000 0.000000
0.307055 0.000000 0.000000
0.518372 0.000000 0.000000
0.642640 0.000000 0.000000
0.722137 0.000000 0.000000
0.776667 0.000000 0.000000
0.818241 0.000000 0.000000
0.847946 0.000000 0.000000
0.871722 0.000000 0.000000
0.890447 0.000000 0.000000
0.906357 0.000000 0.000000
0.920572 0.000000 0.000000
0.932527 0.000000 0.000000
0.942896 0.000000 0.000000
0.952307 0.000000 0.000000
0.961254 0.000000 0.000000
0.969708 0.000000 0.000000
0.977763 0.000000 0.000000
0.985293 0.000000 0.000000
0.992716 0.000000 0.000000
1.000000 0.000000 0.000000
0.000000 0.007284 0.000000
0.304786 0.009236 0.000000
0.515223 0.015329 0.000000
0.639432 0.025289 0.000000
0.717821 0.039039 0.000000
0.771545 0.054459 0.000000
0.812335 0.072624 0.000000
0.841515 0.093895 0.000000
0.864152 0.116830 0.000000
0.882473 0.140060 0.000000
0.898002 0.162567 0.000000
0.911566 0.185704 0.000000
0.923357 0.209315 0.000000
0.933816 0.230763 0.000000
0.943627 0.249275 0.000000
0.953446 0.265790 0.000000
0.962971 0.278902 0.000000
0.972388 0.289869 0.000000
0.981541 0.298609 0.000000
0.990764 0.304786 0.000000
1.000000 0.307055 0.000000
0.000000 0.014707 0.000000
0.298609 0.018459 0.000000
0.507353 0.030149 0.000000
0.631569 0.049503 0.000000
0.709421 0.075856 0.000000
0.764220 0.105887 0.000000
0.803022 0.142560 0.000000
0.829820 0.181709 0.000000
0.849925 0.223275 0.000000
0.865915 0.263255 0.000000
0.878988 0.302241 0.000000
0.890382 0.340368 0.000000
0.900110 0.377515 0.000000
0.909732 0.409948 0.000000
0.919733 0.437606 0.000000
0.930871 0.461462 0.000000
0.942968 0.480275 0.000000
0.955999 0.495820 0.000000
0.969851 0.507353 0.000000
0.984671 0.515223 0.000000
1.000000 0.518372 0.000000
0.000000 0.022237 0.000000
0.289869 0.027612 0.000000
0.495820 0.044001 0.000000
0.618775 0.071722 0.000000
0.694619 0.108059 0.000000
0.747006 0.148672 0.000000
0.781393 0.198006 0.000000
0.804876 0.248070 0.000000
0.820288 0.301517 0.000000
0.832725 0.349766 0.000000
0.841946 0.397329 0.000000
0.849908 0.441892 0.000000
0.856899 0.484167 0.000000
0.865821 0.520976 0.000000
0.877011 0.552566 0.000000
0.891222 0.579558 0.000000
0.908094 0.601536 0.000000
0.928278 0.618775 0.000000
0.950497 0.631569 0.000000
0.974711 0.639432 0.000000
1.000000 0.642640 0.000000
0.000000 0.030292 0.000000
0.278902 0.037029 0.000000
0.480275 0.057032 0.000000
0.601536 0.091906 0.000000
0.676931 0.136838 0.000000
0.727003 0.187884 0.000000
0.755942 0.247934 0.000000
0.775697 0.305286 0.000000
0.784943 0.366781 0.000000
0.793559 0.419093 0.000000
0.797459 0.471119 0.000000
0.801471 0.517526 0.000000
0.804982 0.560058 0.000000
0.813181 0.596084 0.000000
0.824947 0.627444 0.000000
0.841770 0.654249 0.000000
0.863162 0.676931 0.000000
0.891941 0.694619 0.000000
0.924144 0.709421 0.000000
0.960961 0.717821 0.000000
1.000000 0.722137 0.000000
0.000000 0.038746 0.000000
0.265790 0.046554 0.000000
0.461462 0.069129 0.000000
0.579558 0.108778 0.000000
0.654249 0.158230 0.000000
0.700646 0.214294 0.000000
0.724468 0.276829 0.000000
0.740717 0.337009 0.000000
0.745069 0.398412 0.000000
0.749891 0.452047 0.000000
0.748920 0.503844 0.000000
0.748180 0.551089 0.000000
0.747522 0.594802 0.000000
0.753603 0.634519 0.000000
0.765939 0.669669 0.000000
0.785706 0.700646 0.000000
0.812116 0.727003 0.000000
0.851328 0.747006 0.000000
0.894113 0.764220 0.000000
0.945541 0.771545 0.000000
1.000000 0.776667 0.000000
0.000000 0.047693 0.000000
0.249275 0.056373 0.000000
0.437606 0.080267 0.000000
0.552566 0.122989 0.000000
0.627444 0.175053 0.000000
0.669669 0.234061 0.000000
0.690083 0.297257 0.000000
0.702424 0.358593 0.000000
0.702728 0.419089 0.000000
0.703241 0.472693 0.000000
0.697431 0.523145 0.000000
0.692586 0.569396 0.000000
0.688155 0.612199 0.000000
0.691934 0.652596 0.000000
0.702743 0.690083 0.000000
0.723171 0.724468 0.000000
0.752066 0.755942 0.000000
0.801994 0.781393 0.000000
0.857440 0.803022 0.000000
0.927376 0.812335 0.000000
1.000000 0.818241 0.000000
0.000000 0.057104 0.000000
0.230763 0.066184 0.000000
0.409948 0.090268 0.000000
0.520976 0.134179 0.000000
0.596084 0.186819 0.000000
0.634519 0.246397 0.000000
0.652596 0.308066 0.000000
0.661424 0.368769 0.000000
0.658947 0.427152 0.000000
0.655211 0.479863 0.000000
0.645512 0.528719 0.000000
0.636965 0.574613 0.000000
0.629329 0.618080 0.000000
0.631231 0.661424 0.000000
0.641407 0.702424 0.000000
0.662991 0.740717 0.000000
0.694714 0.775697 0.000000
0.751930 0.804876 0.000000
0.818291 0.829820 0.000000
0.906105 0.841515 0.000000
1.000000 0.847946 0.000000
0.000000 0.067473 0.000000
0.209315 0.076643 0.000000
0.377515 0.099890 0.000000
0.484167 0.143101 0.000000
0.560058 0.195018 0.000000
0.594802 0.252478 0.000000
0.612199 0.311845 0.000000
0.618080 0.370671 0.000000
0.613853 0.427220 0.000000
0.606193 0.478410 0.000000
0.593417 0.525540 0.000000
0.582355 0.570598 0.000000
0.572780 0.613853 0.000000
0.572848 0.658947 0.000000
0.580911 0.702728 0.000000
0.601588 0.745069 0.000000
0.633219 0.784943 0.000000
0.698483 0.820288 0.000000
0.776725 0.849925 0.000000
0.883170 0.864152 0.000000
1.000000 0.871722 0.000000
0.000000 0.079428 0.000000
0.185704 0.088434 0.000000
0.340368 0.109618 0.000000
0.441892 0.150092 0.000000
0.517526 0.198529 0.000000
0.551089 0.251820 0.000000
0.569396 0.307414 0.000000
0.574613 0.363035 0.000000
0.570598 0.417645 0.000000
0.560472 0.467317 0.000000
0.546130 0.514287 0.000000
0.532683 0.560472 0.000000
0.521590 0.606193 0.000000
0.520137 0.655211 0.000000
0.527307 0.703241 0.000000
0.547953 0.749891 0.000000
0.580907 0.793559 0.000000
0.650234 0.832725 0.000000
0.736745 0.865915 0.000000
0.859940 0.882473 0.000000
1.000000 0.890447 0.000000
0.000000 0.093643 0.000000
0.162567 0.101998 0.000000
0.302241 0.121012 0.000000
0.397329 0.158054 0.000000
0.471119 0.202541 0.000000
0.503844 0.251080 0.000000
0.523145 0.302569 0.000000
0.528719 0.354488 0.000000
0.525540 0.406583 0.000000
0.514287 0.453870 0.000000
0.500000 0.500000 0.000000
0.485713 0.546130 0.000000
0.474460 0.593417 0.000000
0.471281 0.645512 0.000000
0.476855 0.697431 0.000000
0.496156 0.748920 0.000000
0.528881 0.797459 0.000000
0.602671 0.841946 0.000000
0.697759 0.878988 0.000000
0.837433 0.898002 0.000000
1.000000 0.906357 0.000000
0.000000 0.109553 0.000000
0.140060 0.117527 0.000000
0.263255 0.134085 0.000000
0.349766 0.167275 0.000000
0.419093 0.206441 0.000000
0.452047 0.250109 0.000000
0.472693 0.296759 0.000000
0.479863 0.344789 0.000000
0.478410 0.393807 0.000000
0.467317 0.439528 0.000000
0.453870 0.485713 0.000000
0.439528 0.532683 0.000000
0.429402 0.582355 0.000000
0.425387 0.636965 0.000000
0.430604 0.692586 0.000000
0.448911 0.748180 0.000000
0.482474 0.801471 0.000000
0.558108 0.849908 0.000000
0.659632 0.890382 0.000000
0.814296 0.911566 0.000000
1.000000 0.920572 0.000000
0.000000 0.128278 0.000000
0.116830 0.135848 0.000000
0.223275 0.150075 0.000000
0.301517 0.179712 0.000000
0.366781 0.215057 0.000000
0.398412 0.254931 0.000000
0.419089 0.297272 0.000000
0.427152 0.341053 0.000000
0.427220 0.386147 0.000000
0.417645 0.429402 0.000000
0.406583 0.474460 0.000000
0.393807 0.521590 0.000000
0.386147 0.572780 0.000000
0.381920 0.629329 0.000000
0.387801 0.688155 0.000000
0.405198 0.747522 0.000000
0.439942 0.804982 0.000000
0.515833 0.856899 0.000000
0.622485 0.900110 0.000000
0.790685 0.923357 0.000000
1.000000 0.932527 0.000000
0.000000 0.152054 0.000000
0.093895 0.158485 0.000000
0.181709 0.170180 0.000000
0.248070 0.195124 0.000000
0.305286 0.224303 0.000000
0.337009 0.259283 0.000000
0.358593 0.297576 0.000000
0.368769 0.338576 0.000000
0.370671 0.381920 0.000000
0.363035 0.425387 0.000000
0.354488 0.471281 0.000000
0.344789 0.520137 0.000000
0.341053 0.572848 0.000000
0.338576 0.631231 0.000000
0.347404 0.691934 0.000000
0.365481 0.753603 0.000000
0.403916 0.813181 0.000000
0.479024 0.865821 0.000000
0.590052 0.909732 0.000000
0.769237 0.933816 0.000000
1.000000 0.942896 0.000000
0.000000 0.181759 0.000000
0.072624 0.187665 0.000000
0.142560 0.196978 0.000000
0.198006 0.218607 0.000000
0.247934 0.244058 0.000000
0.276829 0.275532 0.000000
0.297257 0.309917 0.000000
0.308066 0.347404 0.000000
0.311845 0.387801 0.000000
0.307414 0.430604 0.000000
0.302569 0.476855 0.000000
0.296759 0.527307 0.000000
0.297272 0.580911 0.000000
0.297576 0.641407 0.000000
0.309917 0.702743 0.000000
0.330331 0.765939 0.000000
0.372556 0.824947 0.000000
0.447434 0.877011 0.000000
0.562394 0.919733 0.000000
0.750725 0.943627 0.000000
1.000000 0.952307 0.000000
0.000000 0.223333 0.000000
0.054459 0.228455 0.000000
0.105887 0.235780 0.000000
0.148672 0.252994 0.000000
0.187884 0.272997 0.000000
0.214294 0.299354 0.000000
0.234061 0.330331 0.000000
0.246397 0.365481 0.000000
0.252478 0.405198 0.000000
0.251820 0.448911 0.000000
0.251080 0.496156 0.000000
0.250109 0.547953 0.000000
0.254931 0.601588 0.000000
0.259283 0.662991 0.000000
0.275532 0.723171 0.000000
0.299354 0.785706 0.000000
0.345751 0.841770 0.000000
0.420442 0.891222 0.000000
0.538538 0.930871 0.000000
0.734210 0.953446 0.000000
1.000000 0.961254 0.000000
0.000000 0.277863 0.000000
0.039039 0.282179 0.000000
0.075856 0.290579 0.000000
0.108059 0.305381 0.000000
0.136838 0.323069 0.000000
0.158230 0.345751 0.000000
0.175053 0.372556 0.000000
0.186819 0.403916 0.000000
0.195018 0.439942 0.000000
0.198529 0.482474 0.000000
0.202541 0.528881 0.000000
0.206441 0.580907 0.000000
0.215057 0.633219 0.000000
0.224303 0.694714 0.000000
0.244058 0.752066 0.000000
0.272997 0.812116 0.000000
0.323069 0.863162 0.000000
0.398464 0.908094 0.000000
0.519725 0.942968 0.000000
0.721098 0.962971 0.000000
1.000000 0.969708 0.000000
0.000000 0.357360 0.000000
0.025289 0.360568 0.000000
0.049503 0.368431 0.000000
0.071722 0.381225 0.000000
0.091906 0.398464 0.000000
0.108778 0.420442 0.000000
0.122989 0.447434 0.000000
0.134179 0.479024 0.000000
0.143101 0.515833 0.000000
[...]
POINT_DATA 2205 
VECTORS pos float 
0.000000 0.000000 0.000000
0.307055 0.000000 0.000000
0.518372 0.000000 0.000000
0.642640 0.000000 0.000000
0.722137 0.000000 0.000000
0.776667 0.000000 0.000000
0.818241 0.000000 0.000000
0.847946 0.000000 0.000000
0.871722 0.000000 0.000000
0.890447 0.000000 0.000000
0.906357 0.000000 0.000000
0.920572 0.000000 0.000000
0.932527 0.000000 0.000000
0.942896 0.000000 0.000000
0.952307 0.000000 0.000000
0.961254 0.000000 0.000000
0.969708 0.000000 0.000000
0.977763 0.000000 0.000000
0.985293 0.000000 0.000000
0.992716 0.000000 0.000000
1.000000 0.000000 0.000000
0.000000 0.007284 0.000000
0.304786 0.009236 0.000000
0.515223 0.015329 0.000000
0.639432 0.025289 0.000000
0.717821 0.039039 0.000000
0.771545 0.054459 0.000000
0.812335 0.072624 0.000000
0.841515 0.093895 0.000000
0.864152 0.116830 0.000000
0.882473 0.140060 0.000000
0.898002 0.162567 0.000000
0.911566 0.185704 0.000000
0.923357 0.209315 0.000000
0.933816 0.230763 0.000000
0.943627 0.249275 0.000000
0.953446 0.265790 0.000000
0.962971 0.278902 0.000000
0.972388 0.289869 0.000000
0.981541 0.298609 0.000000
0.990764 0.304786 0.000000
1.000000 0.307055 0.000000
0.000000 0.014707 0.000000
0.298609 0.018459 0.000000
0.507353 0.030149 0.000000
0.631569 0.049503 0.000000
0.709421 0.075856 0.000000
0.764220 0.105887 0.000000
0.803022 0.142560 0.000000
0.829820 0.181709 0.000000
0.849925 0.223275 0.000000
0.865915 0.263255 0.000000
0.878988 0.302241 0.000000
0.890382 0.340368 0.000000
0.900110 0.377515 0.000000
0.909732 0.409948 0.000000
0.919733 0.437606 0.000000
0.930871 0.461462 0.000000
0.942968 0.480275 0.000000
0.955999 0.495820 0.000000
0.969851 0.507353 0.000000
0.984671 0.515223 0.000000
1.000000 0.518372 0.000000
0.000000 0.022237 0.000000
0.289869 0.027612 0.000000
0.495820 0.044001 0.000000
0.618775 0.071722 0.000000
0.694619 0.108059 0.000000
0.747006 0.148672 0.000000
0.781393 0.198006 0.000000
0.804876 0.248070 0.000000
0.820288 0.301517 0.000000
0.832725 0.349766 0.000000
0.841946 0.397329 0.000000
0.849908 0.441892 0.000000
0.856899 0.484167 0.000000
0.865821 0.520976 0.000000
0.877011 0.552566 0.000000
0.891222 0.579558 0.000000
0.908094 0.601536 0.000000
0.928278 0.618775 0.000000
0.950497 0.631569 0.000000
0.974711 0.639432 0.000000
1.000000 0.642640 0.000000
0.000000 0.030292 0.000000
0.278902 0.037029 0.000000
0.480275 0.057032 0.000000
0.601536 0.091906 0.000000
0.676931 0.136838 0.000000
0.727003 0.187884 0.000000
0.755942 0.247934 0.000000
0.775697 0.305286 0.000000
0.784943 0.366781 0.000000
0.793559 0.419093 0.000000
0.797459 0.471119 0.000000
0.801471 0.517526 0.000000
0.804982 0.560058 0.000000
0.813181 0.596084 0.000000
0.824947 0.627444 0.000000
0.841770 0.654249 0.000000
0.863162 0.676931 0.000000
0.891941 0.694619 0.000000
0.924144 0.709421 0.000000
0.960961 0.717821 0.000000
1.000000 0.722137 0.000000
0.000000 0.038746 0.000000
0.265790 0.046554 0.000000
0.461462 0.069129 0.000000
0.579558 0.108778 0.000000
0.654249 0.158230 0.000000
0.700646 0.214294 0.000000
0.724468 0.276829 0.000000
0.740717 0.337009 0.000000
0.745069 0.398412 0.000000
0.749891 0.452047 0.000000
0.748920 0.503844 0.000000
0.748180 0.551089 0.000000
0.747522 0.594802 0.000000
0.753603 0.634519 0.000000
0.765939 0.669669 0.000000
0.785706 0.700646 0.000000
0.812116 0.727003 0.000000
0.851328 0.747006 0.000000
0.894113 0.764220 0.000000
0.945541 0.771545 0.000000
1.000000 0.776667 0.000000
0.000000 0.047693 0.000000
0.249275 0.056373 0.000000
0.437606 0.080267 0.000000
0.552566 0.122989 0.000000
0.627444 0.175053 0.000000
0.669669 0.234061 0.000000
0.690083 0.297257 0.000000
0.702424 0.358593 0.000000
0.702728 0.419089 0.000000
0.703241 0.472693 0.000000
0.697431 0.523145 0.000000
0.692586 0.569396 0.000000
0.688155 0.612199 0.000000
0.691934 0.652596 0.000000
0.702743 0.690083 0.000000
0.723171 0.724468 0.000000
0.752066 0.755942 0.000000
0.801994 0.781393 0.000000
0.857440 0.803022 0.000000
0.927376 0.812335 0.000000
1.000000 0.818241 0.000000
0.000000 0.057104 0.000000
0.230763 0.066184 0.000000
0.409948 0.090268 0.000000
0.520976 0.134179 0.000000
0.596084 0.186819 0.000000
0.634519 0.246397 0.000000
0.652596 0.308066 0.000000
0.661424 0.368769 0.000000
0.658947 0.427152 0.000000
0.655211 0.479863 0.000000
0.645512 0.528719 0.000000
0.636965 0.574613 0.000000
0.629329 0.618080 0.000000
0.631231 0.661424 0.000000
0.641407 0.702424 0.000000
0.662991 0.740717 0.000000
0.694714 0.775697 0.000000
0.751930 0.804876 0.000000
0.818291 0.829820 0.000000
0.906105 0.841515 0.000000
1.000000 0.847946 0.000000
0.000000 0.067473 0.000000
0.209315 0.076643 0.000000
0.377515 0.099890 0.000000
0.484167 0.143101 0.000000
0.560058 0.195018 0.000000
0.594802 0.252478 0.000000
0.612199 0.311845 0.000000
0.618080 0.370671 0.000000
0.613853 0.427220 0.000000
0.606193 0.478410 0.000000
0.593417 0.525540 0.000000
0.582355 0.570598 0.000000
0.572780 0.613853 0.000000
0.572848 0.658947 0.000000
0.580911 0.702728 0.000000
0.601588 0.745069 0.000000
0.633219 0.784943 0.000000
0.698483 0.820288 0.000000
0.776725 0.849925 0.000000
0.883170 0.864152 0.000000
1.000000 0.871722 0.000000
0.000000 0.079428 0.000000
0.185704 0.088434 0.000000
0.340368 0.109618 0.000000
0.441892 0.150092 0.000000
0.517526 0.198529 0.000000
0.551089 0.251820 0.000000
0.569396 0.307414 0.000000
0.574613 0.363035 0.000000
0.570598 0.417645 0.000000
0.560472 0.467317 0.000000
0.546130 0.514287 0.000000
0.532683 0.560472 0.000000
0.521590 0.606193 0.000000
0.520137 0.655211 0.000000
0.527307 0.703241 0.000000
0.547953 0.749891 0.000000
0.580907 0.793559 0.000000
0.650234 0.832725 0.000000
0.736745 0.865915 0.000000
0.859940 0.882473 0.000000
1.000000 0.890447 0.000000
0.000000 0.093643 0.000000
0.162567 0.101998 0.000000
0.302241 0.121012 0.000000
0.397329 0.158054 0.000000
0.471119 0.202541 0.000000
0.503844 0.251080 0.000000
0.523145 0.302569 0.000000
0.528719 0.354488 0.000000
0.525540 0.406583 0.000000
0.514287 0.453870 0.000000
0.500000 0.500000 0.000000
0.485713 0.546130 0.000000
0.474460 0.593417 0.000000
0.471281 0.645512 0.000000
0.476855 0.697431 0.000000
0.496156 0.748920 0.000000
0.528881 0.797459 0.000000
0.602671 0.841946 0.000000
0.697759 0.878988 0.000000
0.837433 0.898002 0.000000
1.000000 0.906357 0.000000
0.000000 0.109553 0.000000
0.140060 0.117527 0.000000
0.263255 0.134085 0.000000
0.349766 0.167275 0.000000
0.419093 0.206441 0.000000
0.452047 0.250109 0.000000
0.472693 0.296759 0.000000
0.479863 0.344789 0.000000
0.478410 0.393807 0.000000
0.467317 0.439528 0.000000
0.453870 0.485713 0.000000
0.439528 0.532683 0.000000
0.429402 0.582355 0.000000
0.425387 0.636965 0.000000
0.430604 0.692586 0.000000
0.448911 0.748180 0.000000
0.482474 0.801471 0.000000
0.558108 0.849908 0.000000
0.659632 0.890382 0.000000
0.814296 0.911566 0.000000
1.000000 0.920572 0.000000
0.000000 0.128278 0.000000
0.116830 0.135848 0.000000
0.223275 0.150075 0.000000
0.301517 0.179712 0.000000
0.366781 0.215057 0.000000
0.398412 0.254931 0.000000
0.419089 0.297272 0.000000
0.427152 0.341053 0.000000
0.427220 0.386147 0.000000
0.417645 0.429402 0.000000
0.406583 0.474460 0.000000
0.393807 0.521590 0.000000
0.386147 0.572780 0.000000
0.381920 0.629329 0.000000
0.387801 0.688155 0.000000
0.405198 0.747522 0.000000
0.439942 0.804982 0.000000
0.515833 0.856899 0.000000
0.622485 0.900110 0.000000
0.790685 0.923357 0.000000
1.000000 0.932527 0.000000
0.000000 0.152054 0.000000
0.093895 0.158485 0.000000
0.181709 0.170180 0.000000
0.248070 0.195124 0.000000
0.305286 0.224303 0.000000
0.337009 0.259283 0.000000
0.358593 0.297576 0.000000
0.368769 0.338576 0.000000
0.370671 0.381920 0.000000
0.363035 0.425387 0.000000
0.354488 0.471281 0.000000
0.344789 0.520137 0.000000
0.341053 0.572848 0.000000
0.338576 0.631231 0.000000
0.347404 0.691934 0.000000
0.365481 0.753603 0.000000
0.403916 0.813181 0.000000
0.479024 0.865821 0.000000
0.590052 0.909732 0.000000
0.769237 0.933816 0.000000
1.000000 0.942896 0.000000
0.000000 0.181759 0.000000
0.072624 0.187665 0.000000
0.142560 0.196978 0.000000
0.198006 0.218607 0.000000
0.247934 0.244058 0.000000
0.276829 0.275532 0.000000
0.297257 0.309917 0.000000
0.308066 0.347404 0.000000
0.311845 0.387801 0.000000
0.307414 0.430604 0.000000
0.302569 0.476855 0.000000
0.296759 0.527307 0.000000
0.297272 0.580911 0.000000
0.297576 0.641407 0.000000
0.309917 0.702743 0.000000
0.330331 0.765939 0.000000
0.372556 0.824947 0.000000
0.447434 0.877011 0.000000
0.562394 0.919733 0.000000
0.750725 0.943627 0.000000
1.000000 0.952307 0.000000
0.000000 0.223333 0.000000
0.054459 0.228455 0.000000
0.105887 0.235780 0.000000
0.148672 0.252994 0.000000
0.187884 0.272997 0.000000
0.214294 0.299354 0.000000
0.234061 0.330331 0.000000
0.246397 0.365481 0.000000
0.252478 0.405198 0.000000
0.251820 0.448911 0.000000
0.251080 0.496156 0.000000
0.250109 0.547953 0.000000
0.254931 0.601588 0.000000
0.259283 0.662991 0.000000
0.275532 0.723171 0.000000
0.299354 0.785706 0.000000
0.345751 0.841770 0.000000
0.420442 0.891222 0.000000
0.538538 0.930871 0.000000
0.734210 0.953446 0.000000
1.000000 0.961254 0.000000
0.000000 0.277863 0.000000
0.039039 0.282179 0.000000
0.075856 0.290579 0.000000
0.108059 0.305381 0.000000
0.136838 0.323069 0.000000
0.158230 0.345751 0.000000
0.175053 0.372556 0.000000
0.186819 0.403916 0.000000
0.195018 0.439942 0.000000
0.198529 0.482474 0.000000
0.202541 0.528881 0.000000
0.206441 0.580907 0.000000
0.215057 0.633219 0.000000
0.224303 0.694714 0.000000
0.244058 0.752066 0.000000
0.272997 0.812116 0.000000
0.323069 0.863162 0.000000
0.398464 0.908094 0.000000
0.519725 0.942968 0.000000
0.721098 0.962971 0.000000
1.000000 0.969708 0.000000
0.000000 0.357360 0.000000
0.025289 0.360568 0.000000
0.049503 0.368431 0.000000
0.071722 0.381225 0.000000
0.091906 0.398464 0.000000
0.108778 0.420442 0.000000
0.122989 0.447434 0.000000
0.134179 0.479024 0.000000
0.143101 0.515833 0.000000
0.150092 0.558108 0.000000
0.158054 0.602671 0.000000
0.167275 0.650234 0.000000
0.179712 0.698483 0.000000
0.195124 0.751930 0.000000
0.218607 0.801994 0.000000
0.252994 0.851328 0.000000
0.305381 0.891941 0.000000
0.381225 0.928278 0.000000
0.504180 0.955999 0.000000
0.710131 0.972388 0.000000
1.000000 0.977763 0.000000
0.000000 0.481628 0.000000
0.015329 0.484777 0.000000
0.030149 0.492647 0.000000
0.044001 0.504180 0.000000
0.057032 0.519725 0.000000
0.069129 0.538538 0.000000
0.080267 0.562394 0.000000
0.090268 0.590052 0.000000
0.099890 0.622485 0.000000
0.109618 0.659632 0.000000
0.121012 0.697759 0.000000
0.134085 0.736745 0.000000
0.150075 0.776725 0.000000
0.170180 0.818291 0.000000
0.196978 0.857440 0.000000
0.235780 0.894113 0.000000
0.290579 0.924144 0.000000
0.368431 0.950497 0.000000
0.492647 0.969851 0.000000
0.701391 0.981541 0.000000
1.000000 0.985293 0.000000
0.000000 0.692945 0.000000
0.009236 0.695214 0.000000
0.018459 0.701391 0.000000
0.027612 0.710131 0.000000
0.037029 0.721098 0.000000
0.046554 0.734210 0.000000
0.056373 0.750725 0.000000
0.066184 0.769237 0.000000
0.076643 0.790685 0.000000
0.088434 0.814296 0.000000
0.101998 0.837433 0.000000
0.117527 0.859940 0.000000
0.135848 0.883170 0.000000
0.158485 0.906105 0.000000
0.187665 0.927376 0.000000
0.228455 0.945541 0.000000
0.282179 0.960961 0.000000
0.360568 0.974711 0.000000
0.484777 0.984671 0.000000
0.695214 0.990764 0.000000
1.000000 0.992716 0.000000
0.000000 1.000000 0.000000
0.007284 1.000000 0.000000
0.014707 1.000000 0.000000
0.022237 1.000000 0.000000
0.030292 1.000000 0.000000
0.038746 1.000000 0.000000
0.047693 1.000000 0.000000
0.057104 1.000000 0.000000
0.067473 1.000000 0.000000
0.079428 1.000000 0.000000
0.093643 1.000000 0.000000
0.109553 1.000000 0.000000
0.128278 1.000000 0.000000
0.152054 1.000000 0.000000
0.181759 1.000000 0.000000
0.223333 1.000000 0.000000
0.277863 1.000000 0.000000
0.357360 1.000000 0.000000
0.481628 1.000000 0.000000
0.692945 1.000000 0.000000
1.000000 1.000000 0.000000
0.000000 0.000000 0.082500
0.307055 0.000000 0.082500
0.518372 0.000000 0.082500
0.642640 0.000000 0.082500
0.722137 0.000000 0.082500
0.776667 0.000000 0.082500
0.818241 0.000000 0.082500
0.847946 0.000000 0.082500
0.871722 0.000000 0.082500
0.890447 0.000000 0.082500
0.906357 0.000000 0.082500
0.920572 0.000000 0.082500
0.932527 0.000000 0.082500
0.942896 0.000000 0.082500
0.952307 0.000000 0.082500
0.961254 0.000000 0.082500
0.969708 0.000000 0.082500
0.977763 0.000000 0.082500
0.985293 0.000000 0.082500
0.992716 0.000000 0.082500
1.000000 0.000000 0.082500
0.000000 0.007284 0.082500
0.304786 0.009236 0.082500
0.515223 0.015329 0.082500
0.639432 0.025289 0.082500
0.717821 0.039039 0.082500
0.771545 0.054459 0.082500
0.812335 0.072624 0.082500
0.841515 0.093895 0.082500
0.864152 0.116830 0.082500
0.882473 0.140060 0.082500
0.898002 0.162567 0.082500
0.911566 0.185704 0.082500
0.923357 0.209315 0.082500
0.933816 0.230763 0.082500
0.943627 0.249275 0.082500
0.953446 0.265790 0.082500
0.962971 0.278902 0.082500
0.972388 0.289869 0.082500
0.981541 0.298609 0.082500
0.990764 0.304786 0.082500
1.000000 0.307055 0.082500
0.000000 0.014707 0.082500
0.298609 0.018459 0.082500
0.507353 0.030149 0.082500
0.631569 0.049503 0.082500
0.709421 0.075856 0.082500
0.764220 0.105887 0.082500
0.803022 0.142560 0.082500
0.829820 0.181709 0.082500
0.849925 0.223275 0.082500
0.865915 0.263255 0.082500
0.878988 0.302241 0.082500
0.890382 0.340368 0.082500
0.900110 0.377515 0.082500
0.909732 0.409948 0.082500
0.919733 0.437606 0.082500
0.930871 0.461462 0.082500
0.942968 0.480275 0.082500
0.955999 0.495820 0.082500
0.969851 0.507353 0.082500
0.984671 0.515223 0.082500
1.000000 0.518372 0.082500
0.000000 0.022237 0.082500
0.289869 0.027612 0.082500
0.495820 0.044001 0.082500
0.618775 0.071722 0.082500
0.694619 0.108059 0.082500
0.747006 0.148672 0.082500
0.781393 0.198006 0.082500
0.804876 0.248070 0.082500
0.820288 0.301517 0.082500
0.832725 0.349766 0.082500
0.841946 0.397329 0.082500
0.849908 0.441892 0.082500
0.856899 0.484167 0.082500
0.865821 0.520976 0.082500
0.877011 0.552566 0.082500
0.891222 0.579558 0.082500
0.908094 0.601536 0.082500
0.928278 0.618775 0.082500
0.950497 0.631569 0.082500
0.974711 0.639432 0.082500
1.000000 0.642640 0.082500
0.000000 0.030292 0.082500
0.278902 0.037029 0.082500
0.480275 0.057032 0.082500
0.601536 0.091906 0.082500
0.676931 0.136838 0.082500
0.727003 0.187884 0.082500
0.755942 0.247934 0.082500
0.775697 0.305286 0.082500
0.784943 0.366781 0.082500
0.793559 0.419093 0.082500
0.797459 0.471119 0.082500
0.801471 0.517526 0.082500
0.804982 0.560058 0.082500
0.813181 0.596084 0.082500
0.824947 0.627444 0.082500
0.841770 0.654249 0.082500
0.863162 0.676931 0.082500
0.891941 0.694619 0.082500
0.924144 0.709421 0.082500
0.960961 0.717821 0.082500
1.000000 0.722137 0.082500
0.000000 0.038746 0.082500
0.265790 0.046554 0.082500
0.461462 0.069129 0.082500
0.579558 0.108778 0.082500
0.654249 0.158230 0.082500
0.700646 0.214294 0.082500
0.724468 0.276829 0.082500
0.740717 0.337009 0.082500
0.745069 0.398412 0.082500
0.749891 0.452047 0.082500
0.748920 0.503844 0.082500
0.748180 0.551089 0.082500
0.747522 0.594802 0.082500
0.753603 0.634519 0.082500
0.765939 0.669669 0.082500
0.785706 0.700646 0.082500
0.812116 0.727003 0.082500
0.851328 0.747006 0.082500
0.894113 0.764220 0.082500
0.945541 0.771545 0.082500
1.000000 0.776667 0.082500
0.000000 0.047693 0.082500
0.249275 0.056373 0.082500
0.437606 0.080267 0.082500
0.552566 0.122989 0.082500
0.627444 0.175053 0.082500
0.669669 0.234061 0.082500
0.690083 0.297257 0.082500
0.702424 0.358593 0.082500
0.702728 0.419089 0.082500
0.703241 0.472693 0.082500
0.697431 0.523145 0.082500
0.692586 0.569396 0.082500
0.688155 0.612199 0.082500
0.691934 0.652596 0.082500
0.702743 0.690083 0.082500
0.723171 0.724468 0.082500
0.752066 0.755942 0.082500
0.801994 0.781393 0.082500
0.857440 0.803022 0.082500
0.927376 0.812335 0.082500
1.000000 0.818241 0.082500
0.000000 0.057104 0.082500
0.230763 0.066184 0.082500
0.409948 0.090268 0.082500
0.520976 0.134179 0.082500
0.596084 0.186819 0.082500
0.634519 0.246397 0.082500
0.652596 0.308066 0.082500
0.661424 0.368769 0.082500
0.658947 0.427152 0.082500
0.655211 0.479863 0.082500
0.645512 0.528719 0.082500
0.636965 0.574613 0.082500
0.629329 0.618080 0.082500
0.631231 0.661424 0.082500
0.641407 0.702424 0.082500
0.662991 0.740717 0.082500
0.694714 0.775697 0.082500
0.751930 0.804876 0.082500
0.818291 0.829820 0.082500
0.906105 0.841515 0.082500
1.000000 0.847946 0.082500
0.000000 0.067473 0.082500
0.209315 0.076643 0.082500
0.377515 0.099890 0.082500
0.484167 0.143101 0.082500
0.560058 0.195018 0.082500
0.594802 0.252478 0.082500
0.612199 0.311845 0.082500
0.618080 0.370671 0.082500
0.613853 0.427220 0.082500
0.606193 0.478410 0.082500
0.593417 0.525540 0.082500
0.582355 0.570598 0.082500
0.572780 0.613853 0.082500
0.572848 0.658947 0.082500
0.580911 0.702728 0.082500
0.601588 0.745069 0.082500
0.633219 0.784943 0.082500
0.698483 0.820288 0.082500
0.776725 0.849925 0.082500
0.883170 0.864152 0.082500
1.000000 0.871722 0.082500
0.000000 0.079428 0.082500
0.185704 0.088434 0.082500
0.340368 0.109618 0.082500
0.441892 0.150092 0.082500
0.517526 0.198529 0.082500
0.551089 0.251820 0.082500
0.569396 0.307414 0.082500
0.574613 0.363035 0.082500
0.570598 0.417645 0.082500
0.560472 0.467317 0.082500
0.546130 0.514287 0.082500
0.532683 0.560472 0.082500
0.521590 0.606193 0.082500
0.520137 0.655211 0.082500
0.527307 0.703241 0.082500
0.547953 0.749891 0.082500
0.580907 0.793559 0.082500
0.650234 0.832725 0.082500
0.736745 0.865915 0.082500
0.859940 0.882473 0.082500
1.000000 0.890447 0.082500
0.000000 0.093643 0.082500
0.162567 0.101998 0.082500
0.302241 0.121012 0.082500
0.397329 0.158054 0.082500
0.471119 0.202541 0.082500
0.503844 0.251080 0.082500
0.523145 0.302569 0.082500
0.528719 0.354488 0.082500
0.525540 0.406583 0.082500
0.514287 0.453870 0.082500
0.500000 0.500000 0.082500
0.485713 0.546130 0.082500
0.474460 0.593417 0.082500
0.471281 0.645512 0.082500
0.476855 0.697431 0.082500
0.496156 0.748920 0.082500
0.528881 0.797459 0.082500
0.602671 0.841946 0.082500
0.697759 0.878988 0.082500
0.837433 0.898002 0.082500
1.000000 0.906357 0.082500
0.000000 0.109553 0.082500
0.140060 0.117527 0.082500
0.263255 0.134085 0.082500
0.349766 0.167275 0.082500
0.419093 0.206441 0.082500
0.452047 0.250109 0.082500
0.472693 0.296759 0.082500
0.479863 0.344789 0.082500
0.478410 0.393807 0.082500
0.467317 0.439528 0.082500
0.453870 0.485713 0.082500
0.439528 0.532683 0.082500
0.429402 0.582355 0.082500
0.425387 0.636965 0.082500
0.430604 0.692586 0.082500
0.448911 0.748180 0.082500
0.482474 0.801471 0.082500
0.558108 0.849908 0.082500
0.659632 0.890382 0.082500
0.814296 0.911566 0.082500
1.000000 0.920572 0.082500
0.000000 0.128278 0.082500
0.116830 0.135848 0.082500
0.223275 0.150075 0.082500
0.301517 0.179712 0.082500
0.366781 0.215057 0.082500
0.398412 0.254931 0.082500
0.419089 0.297272 0.082500
0.427152 0.341053 0.082500
0.427220 0.386147 0.082500
0.417645 0.429402 0.082500
0.406583 0.474460 0.082500
0.393807 0.521590 0.082500
0.386147 0.572780 0.082500
0.381920 0.629329 0.082500
0.387801 0.688155 0.082500
0.405198 0.747522 0.082500
0.439942 0.804982 0.082500
0.515833 0.856899 0.082500
0.622485 0.900110 0.082500
0.790685 0.923357 0.082500
1.000000 0.932527 0.082500
0.000000 0.152054 0.082500
0.093895 0.158485 0.082500
0.181709 0.170180 0.082500
0.248070 0.195124 0.082500
0.305286 0.224303 0.082500
0.337009 0.259283 0.082500
0.358593 0.297576 0.082500
0.368769 0.338576 0.082500
0.370671 0.381920 0.082500
0.363035 0.425387 0.082500
0.354488 0.471281 0.082500
0.344789 0.520137 0.082500
0.341053 0.572848 0.082500
0.338576 0.631231 0.082500
0.347404 0.691934 0.082500
0.365481 0.753603 0.082500
0.403916 0.813181 0.082500
0.479024 0.865821 0.082500
0.590052 0.909732 0.082500
0.769237 0.933816 0.082500
1.000000 0.942896 0.082500
0.000000 0.181759 0.082500
0.072624 0.187665 0.082500
0.142560 0.196978 0.082500
0.198006 0.218607 0.082500