# vtk DataFile Version 2.0
Mesh for Fierro
ASCII 
DATASET UNSTRUCTURED_GRID

POINTS 2205 float
0.000000 0.000000 0.000000
0.547581 0.000000 0.000000
0.804893 0.000000 0.000000
0.855553 0.000000 0.000000
0.892470 0.000000 0.000000
0.913440 0.000000 0.000000
0.928434 0.000000 0.000000
0.940856 0.000000 0.000000
0.950015 0.000000 0.000000
0.957246 0.000000 0.000000
0.963249 0.000000 0.000000
0.968242 0.000000 0.000000
0.972315 0.000000 0.000000
0.975777 0.000000 0.000000
0.978907 0.000000 0.000000
0.981988 0.000000 0.000000
0.985102 0.000000 0.000000
0.988435 0.000000 0.000000
0.992028 0.000000 0.000000
0.995927 0.000000 0.000000
1.000000 0.000000 0.000000
0.000000 0.004073 0.000000
0.545252 0.006561 0.000000
0.795652 0.027364 0.000000
0.847782 0.056021 0.000000
0.886426 0.088729 0.000000
0.905834 0.133320 0.000000
0.919949 0.174025 0.000000
0.929013 0.222273 0.000000
0.935750 0.273202 0.000000
0.941175 0.319734 0.000000
0.946023 0.362819 0.000000
0.950542 0.403588 0.000000
0.954562 0.442560 0.000000
0.958800 0.474929 0.000000
0.963220 0.501696 0.000000
0.968080 0.523578 0.000000
0.973520 0.539098 0.000000
0.979919 0.546556 0.000000
0.986847 0.543545 0.000000
0.993439 0.545252 0.000000
1.000000 0.547581 0.000000
0.000000 0.007972 0.000000
0.543545 0.013153 0.000000
0.779151 0.049568 0.000000
0.838241 0.100914 0.000000
0.877219 0.170389 0.000000
0.892727 0.242810 0.000000
0.902685 0.317935 0.000000
0.907763 0.396082 0.000000
0.907852 0.468138 0.000000
0.907446 0.523857 0.000000
0.905348 0.571562 0.000000
0.901255 0.611958 0.000000
0.896104 0.646705 0.000000
0.894028 0.675322 0.000000
0.895570 0.699746 0.000000
0.902079 0.721026 0.000000
0.914006 0.739719 0.000000
0.930698 0.759509 0.000000
0.950432 0.779151 0.000000
0.972636 0.795652 0.000000
1.000000 0.804893 0.000000
0.000000 0.011565 0.000000
0.546556 0.020081 0.000000
0.759509 0.069302 0.000000
0.828749 0.134132 0.000000
0.856958 0.233988 0.000000
0.871265 0.313296 0.000000
0.876508 0.400928 0.000000
0.870127 0.480715 0.000000
0.857564 0.547510 0.000000
0.846335 0.598995 0.000000
0.830879 0.646154 0.000000
0.816652 0.687018 0.000000
0.803945 0.724513 0.000000
0.800570 0.755857 0.000000
0.805036 0.781799 0.000000
0.817838 0.802373 0.000000
0.838111 0.817610 0.000000
0.865868 0.828749 0.000000
0.899086 0.838241 0.000000
0.943979 0.847782 0.000000
1.000000 0.855553 0.000000
0.000000 0.014898 0.000000
0.539098 0.026480 0.000000
0.739719 0.085994 0.000000
0.817610 0.161889 0.000000
0.830460 0.278270 0.000000
0.848263 0.363192 0.000000
0.840878 0.460874 0.000000
0.821969 0.533764 0.000000
0.797354 0.596109 0.000000
0.774276 0.644916 0.000000
0.748012 0.684874 0.000000
0.728852 0.715220 0.000000
0.710124 0.739004 0.000000
0.699841 0.760510 0.000000
0.697005 0.781789 0.000000
0.702865 0.805437 0.000000
0.721730 0.830460 0.000000
0.766012 0.856958 0.000000
0.829611 0.877219 0.000000
0.911271 0.886426 0.000000
1.000000 0.892470 0.000000
0.000000 0.018012 0.000000
0.523578 0.031920 0.000000
0.721026 0.097921 0.000000
0.802373 0.182162 0.000000
0.805437 0.297135 0.000000
0.823816 0.388576 0.000000
0.805859 0.477844 0.000000
0.779144 0.545194 0.000000
0.747444 0.601133 0.000000
0.715861 0.644773 0.000000
0.680606 0.680435 0.000000
0.646995 0.711191 0.000000
0.615889 0.739456 0.000000
0.600639 0.769009 0.000000
0.597835 0.797045 0.000000
0.611424 0.823816 0.000000
0.636808 0.848263 0.000000
0.686704 0.871265 0.000000
0.757190 0.892727 0.000000
0.866680 0.905834 0.000000
1.000000 0.913440 0.000000
0.000000 0.021093 0.000000
0.501696 0.036780 0.000000
0.699746 0.104430 0.000000
0.781799 0.194964 0.000000
0.781789 0.302995 0.000000
0.797045 0.402165 0.000000
0.769756 0.480949 0.000000
0.738124 0.544346 0.000000
0.698161 0.594505 0.000000
0.661161 0.633018 0.000000
0.620999 0.662998 0.000000
0.585758 0.689221 0.000000
0.553756 0.711908 0.000000
0.532265 0.739827 0.000000
0.519051 0.769756 0.000000
0.522156 0.805859 0.000000
0.539126 0.840878 0.000000
0.599072 0.876508 0.000000
0.682065 0.902685 0.000000
0.825975 0.919949 0.000000
1.000000 0.928434 0.000000
0.000000 0.024223 0.000000
0.474929 0.041200 0.000000
0.675322 0.105972 0.000000
0.755857 0.199430 0.000000
0.760510 0.300159 0.000000
0.769009 0.399361 0.000000
0.739827 0.467735 0.000000
0.704099 0.528211 0.000000
0.660701 0.570601 0.000000
0.620029 0.604945 0.000000
0.576689 0.630207 0.000000
0.535597 0.652231 0.000000
0.497850 0.673682 0.000000
0.471789 0.704099 0.000000
0.455654 0.738124 0.000000
0.454806 0.779144 0.000000
0.466236 0.821969 0.000000
0.519285 0.870127 0.000000
0.603918 0.907763 0.000000
0.777727 0.929013 0.000000
1.000000 0.940856 0.000000
0.000000 0.027685 0.000000
0.442560 0.045438 0.000000
0.646705 0.103896 0.000000
0.724513 0.196055 0.000000
0.739004 0.289876 0.000000
0.739456 0.384111 0.000000
0.711908 0.446244 0.000000
0.673682 0.502150 0.000000
0.627842 0.539041 0.000000
0.584924 0.569524 0.000000
0.540361 0.589340 0.000000
0.499783 0.608801 0.000000
0.460959 0.627842 0.000000
0.429399 0.660701 0.000000
0.405495 0.698161 0.000000
0.398867 0.747444 0.000000
0.403891 0.797354 0.000000
0.452490 0.857564 0.000000
0.531862 0.907852 0.000000
0.726798 0.935750 0.000000
1.000000 0.950015 0.000000
0.000000 0.031758 0.000000
0.403588 0.049458 0.000000
0.611958 0.098745 0.000000
0.687018 0.183348 0.000000
0.715220 0.271148 0.000000
0.711191 0.353005 0.000000
0.689221 0.414242 0.000000
0.652231 0.464403 0.000000
0.608801 0.500217 0.000000
0.563932 0.527147 0.000000
0.517698 0.545359 0.000000
0.472853 0.563932 0.000000
0.430476 0.584924 0.000000
0.395055 0.620029 0.000000
0.366982 0.661161 0.000000
0.355227 0.715861 0.000000
0.355084 0.774276 0.000000
0.401005 0.846335 0.000000
0.476143 0.907446 0.000000
0.680266 0.941175 0.000000
1.000000 0.957246 0.000000
0.000000 0.036751 0.000000
0.362819 0.053977 0.000000
0.571562 0.094652 0.000000
0.646154 0.169121 0.000000
0.684874 0.251988 0.000000
0.680435 0.319394 0.000000
0.662998 0.379001 0.000000
0.630207 0.423311 0.000000
0.589340 0.459639 0.000000
0.545359 0.482302 0.000000
0.500000 0.500000 0.000000
0.454641 0.517698 0.000000
0.410660 0.540361 0.000000
0.369793 0.576689 0.000000
0.337002 0.620999 0.000000
0.319565 0.680606 0.000000
0.315126 0.748012 0.000000
0.353846 0.830879 0.000000
0.428438 0.905348 0.000000
0.637181 0.946023 0.000000
1.000000 0.963249 0.000000
0.000000 0.042754 0.000000
0.319734 0.058825 0.000000
0.523857 0.092554 0.000000
0.598995 0.153665 0.000000
0.644916 0.225724 0.000000
0.644773 0.284139 0.000000
0.633018 0.338839 0.000000
0.604945 0.379971 0.000000
0.569524 0.415076 0.000000
0.527147 0.436068 0.000000
0.482302 0.454641 0.000000
0.436068 0.472853 0.000000
0.391199 0.499783 0.000000
0.347769 0.535597 0.000000
0.310779 0.585758 0.000000
0.288809 0.646995 0.000000
0.284780 0.728852 0.000000
0.312982 0.816652 0.000000
0.388042 0.901255 0.000000
0.596412 0.950542 0.000000
1.000000 0.968242 0.000000
0.000000 0.049985 0.000000
0.273202 0.064250 0.000000
0.468138 0.092148 0.000000
0.547510 0.142436 0.000000
0.596109 0.202646 0.000000
0.601133 0.252556 0.000000
0.594505 0.301839 0.000000
0.570601 0.339299 0.000000
0.539041 0.372158 0.000000
0.500217 0.391199 0.000000
0.459639 0.410660 0.000000
0.415076 0.430476 0.000000
0.372158 0.460959 0.000000
0.326318 0.497850 0.000000
0.288092 0.553756 0.000000
0.260544 0.615889 0.000000
0.260996 0.710124 0.000000
0.275487 0.803945 0.000000
0.353295 0.896104 0.000000
0.557440 0.954562 0.000000
1.000000 0.972315 0.000000
0.000000 0.059144 0.000000
0.222273 0.070987 0.000000
0.396082 0.092237 0.000000
0.480715 0.129873 0.000000
0.533764 0.178031 0.000000
0.545194 0.220856 0.000000
0.544346 0.261876 0.000000
0.528211 0.295901 0.000000
0.502150 0.326318 0.000000
0.464403 0.347769 0.000000
0.423311 0.369793 0.000000
0.379971 0.395055 0.000000
0.339299 0.429399 0.000000
0.295901 0.471789 0.000000
0.260173 0.532265 0.000000
0.230991 0.600639 0.000000
0.239490 0.699841 0.000000
0.244143 0.800570 0.000000
0.324678 0.894028 0.000000
0.525071 0.958800 0.000000
1.000000 0.975777 0.000000
0.000000 0.071566 0.000000
0.174025 0.080051 0.000000
0.317935 0.097315 0.000000
0.400928 0.123492 0.000000
0.460874 0.159122 0.000000
0.477844 0.194141 0.000000
0.480949 0.230244 0.000000
0.467735 0.260173 0.000000
0.446244 0.288092 0.000000
0.414242 0.310779 0.000000
0.379001 0.337002 0.000000
0.338839 0.366982 0.000000
0.301839 0.405495 0.000000
0.261876 0.455654 0.000000
0.230244 0.519051 0.000000
0.202955 0.597835 0.000000
0.218211 0.697005 0.000000
0.218201 0.805036 0.000000
0.300254 0.895570 0.000000
0.498304 0.963220 0.000000
1.000000 0.978907 0.000000
0.000000 0.086560 0.000000
0.133320 0.094166 0.000000
0.242810 0.107273 0.000000
0.313296 0.128735 0.000000
0.363192 0.151737 0.000000
0.388576 0.176184 0.000000
0.402165 0.202955 0.000000
0.399361 0.230991 0.000000
0.384111 0.260544 0.000000
0.353005 0.288809 0.000000
0.319394 0.319565 0.000000
0.284139 0.355227 0.000000
0.252556 0.398867 0.000000
0.220856 0.454806 0.000000
0.194141 0.522156 0.000000
0.176184 0.611424 0.000000
0.194563 0.702865 0.000000
0.197627 0.817838 0.000000
0.278974 0.902079 0.000000
0.476422 0.968080 0.000000
1.000000 0.981988 0.000000
0.000000 0.107530 0.000000
0.088729 0.113574 0.000000
0.170389 0.122781 0.000000
0.233988 0.143042 0.000000
0.278270 0.169540 0.000000
0.297135 0.194563 0.000000
0.302995 0.218211 0.000000
0.300159 0.239490 0.000000
0.289876 0.260996 0.000000
0.271148 0.284780 0.000000
0.251988 0.315126 0.000000
0.225724 0.355084 0.000000
0.202646 0.403891 0.000000
0.178031 0.466236 0.000000
0.159122 0.539126 0.000000
0.151737 0.636808 0.000000
0.169540 0.721730 0.000000
0.182390 0.838111 0.000000
0.260281 0.914006 0.000000
0.460902 0.973520 0.000000
1.000000 0.985102 0.000000
0.000000 0.144447 0.000000
0.056021 0.152218 0.000000
0.100914 0.161759 0.000000
0.134132 0.171251 0.000000
0.161889 0.182390 0.000000
0.182162 0.197627 0.000000
0.194964 0.218201 0.000000
0.199430 0.244143 0.000000
0.196055 0.275487 0.000000
[...]
POINT_DATA 2205 
VECTORS pos float 
0.000000 0.000000 0.000000
0.547581 0.000000 0.000000
0.804893 0.000000 0.000000
0.855553 0.000000 0.000000
0.892470 0.000000 0.000000
0.913440 0.000000 0.000000
0.928434 0.000000 0.000000
0.940856 0.000000 0.000000
0.950015 0.000000 0.000000
0.957246 0.000000 0.000000
0.963249 0.000000 0.000000
0.968242 0.000000 0.000000
0.972315 0.000000 0.000000
0.975777 0.000000 0.000000
0.978907 0.000000 0.000000
0.981988 0.000000 0.000000
0.985102 0.000000 0.000000
0.988435 0.000000 0.000000
0.992028 0.000000 0.000000
0.995927 0.000000 0.000000
1.000000 0.000000 0.000000
0.000000 0.004073 0.000000
0.545252 0.006561 0.000000
0.795652 0.027364 0.000000
0.847782 0.056021 0.000000
0.886426 0.088729 0.000000
0.905834 0.133320 0.000000
0.919949 0.174025 0.000000
0.929013 0.222273 0.000000
0.935750 0.273202 0.000000
0.941175 0.319734 0.000000
0.946023 0.362819 0.000000
0.950542 0.403588 0.000000
0.954562 0.442560 0.000000
0.958800 0.474929 0.000000
0.963220 0.501696 0.000000
0.968080 0.523578 0.000000
0.973520 0.539098 0.000000
0.979919 0.546556 0.000000
0.986847 0.543545 0.000000
0.993439 0.545252 0.000000
1.000000 0.547581 0.000000
0.000000 0.007972 0.000000
0.543545 0.013153 0.000000
0.779151 0.049568 0.000000
0.838241 0.100914 0.000000
0.877219 0.170389 0.000000
0.892727 0.242810 0.000000
0.902685 0.317935 0.000000
0.907763 0.396082 0.000000
0.907852 0.468138 0.000000
0.907446 0.523857 0.000000
0.905348 0.571562 0.000000
0.901255 0.611958 0.000000
0.896104 0.646705 0.000000
0.894028 0.675322 0.000000
0.895570 0.699746 0.000000
0.902079 0.721026 0.000000
0.914006 0.739719 0.000000
0.930698 0.759509 0.000000
0.950432 0.779151 0.000000
0.972636 0.795652 0.000000
1.000000 0.804893 0.000000
0.000000 0.011565 0.000000
0.546556 0.020081 0.000000
0.759509 0.069302 0.000000
0.828749 0.134132 0.000000
0.856958 0.233988 0.000000
0.871265 0.313296 0.000000
0.876508 0.400928 0.000000
0.870127 0.480715 0.000000
0.857564 0.547510 0.000000
0.846335 0.598995 0.000000
0.830879 0.646154 0.000000
0.816652 0.687018 0.000000
0.803945 0.724513 0.000000
0.800570 0.755857 0.000000
0.805036 0.781799 0.000000
0.817838 0.802373 0.000000
0.838111 0.817610 0.000000
0.865868 0.828749 0.000000
0.899086 0.838241 0.000000
0.943979 0.847782 0.000000
1.000000 0.855553 0.000000
0.000000 0.014898 0.000000
0.539098 0.026480 0.000000
0.739719 0.085994 0.000000
0.817610 0.161889 0.000000
0.830460 0.278270 0.000000
0.848263 0.363192 0.000000
0.840878 0.460874 0.000000
0.821969 0.533764 0.000000
0.797354 0.596109 0.000000
0.774276 0.644916 0.000000
0.748012 0.684874 0.000000
0.728852 0.715220 0.000000
0.710124 0.739004 0.000000
0.699841 0.760510 0.000000
0.697005 0.781789 0.000000
0.702865 0.805437 0.000000
0.721730 0.830460 0.000000
0.766012 0.856958 0.000000
0.829611 0.877219 0.000000
0.911271 0.886426 0.000000
1.000000 0.892470 0.000000
0.000000 0.018012 0.000000
0.523578 0.031920 0.000000
0.721026 0.097921 0.000000
0.802373 0.182162 0.000000
0.805437 0.297135 0.000000
0.823816 0.388576 0.000000
0.805859 0.477844 0.000000
0.779144 0.545194 0.000000
0.747444 0.601133 0.000000
0.715861 0.644773 0.000000
0.680606 0.680435 0.000000
0.646995 0.711191 0.000000
0.615889 0.739456 0.000000
0.600639 0.769009 0.000000
0.597835 0.797045 0.000000
0.611424 0.823816 0.000000
0.636808 0.848263 0.000000
0.686704 0.871265 0.000000
0.757190 0.892727 0.000000
0.866680 0.905834 0.000000
1.000000 0.913440 0.000000
0.000000 0.021093 0.000000
0.501696 0.036780 0.000000
0.699746 0.104430 0.000000
0.781799 0.194964 0.000000
0.781789 0.302995 0.000000
0.797045 0.402165 0.000000
0.769756 0.480949 0.000000
0.738124 0.544346 0.000000
0.698161 0.594505 0.000000
0.661161 0.633018 0.000000
0.620999 0.662998 0.000000
0.585758 0.689221 0.000000
0.553756 0.711908 0.000000
0.532265 0.739827 0.000000
0.519051 0.769756 0.000000
0.522156 0.805859 0.000000
0.539126 0.840878 0.000000
0.599072 0.876508 0.000000
0.682065 0.902685 0.000000
0.825975 0.919949 0.000000
1.000000 0.928434 0.000000
0.000000 0.024223 0.000000
0.474929 0.041200 0.000000
0.675322 0.105972 0.000000
0.755857 0.199430 0.000000
0.760510 0.300159 0.000000
0.769009 0.399361 0.000000
0.739827 0.467735 0.000000
0.704099 0.528211 0.000000
0.660701 0.570601 0.000000
0.620029 0.604945 0.000000
0.576689 0.630207 0.000000
0.535597 0.652231 0.000000
0.497850 0.673682 0.000000
0.471789 0.704099 0.000000
0.455654 0.738124 0.000000
0.454806 0.779144 0.000000
0.466236 0.821969 0.000000
0.519285 0.870127 0.000000
0.603918 0.907763 0.000000
0.777727 0.929013 0.000000
1.000000 0.940856 0.000000
0.000000 0.027685 0.000000
0.442560 0.045438 0.000000
0.646705 0.103896 0.000000
0.724513 0.196055 0.000000
0.739004 0.289876 0.000000
0.739456 0.384111 0.000000
0.711908 0.446244 0.000000
0.673682 0.502150 0.000000
0.627842 0.539041 0.000000
0.584924 0.569524 0.000000
0.540361 0.589340 0.000000
0.499783 0.608801 0.000000
0.460959 0.627842 0.000000
0.429399 0.660701 0.000000
0.405495 0.698161 0.000000
0.398867 0.747444 0.000000
0.403891 0.797354 0.000000
0.452490 0.857564 0.000000
0.531862 0.907852 0.000000
0.726798 0.935750 0.000000
1.000000 0.950015 0.000000
0.000000 0.031758 0.000000
0.403588 0.049458 0.000000
0.611958 0.098745 0.000000
0.687018 0.183348 0.000000
0.715220 0.271148 0.000000
0.711191 0.353005 0.000000
0.689221 0.414242 0.000000
0.652231 0.464403 0.000000
0.608801 0.500217 0.000000
0.563932 0.527147 0.000000
0.517698 0.545359 0.000000
0.472853 0.563932 0.000000
0.430476 0.584924 0.000000
0.395055 0.620029 0.000000
0.366982 0.661161 0.000000
0.355227 0.715861 0.000000
0.355084 0.774276 0.000000
0.401005 0.846335 0.000000
0.476143 0.907446 0.000000
0.680266 0.941175 0.000000
1.000000 0.957246 0.000000
0.000000 0.036751 0.000000
0.362819 0.053977 0.000000
0.571562 0.094652 0.000000
0.646154 0.169121 0.000000
0.684874 0.251988 0.000000
0.680435 0.319394 0.000000
0.662998 0.379001 0.000000
0.630207 0.423311 0.000000
0.589340 0.459639 0.000000
0.545359 0.482302 0.000000
0.500000 0.500000 0.000000
0.454641 0.517698 0.000000
0.410660 0.540361 0.000000
0.369793 0.576689 0.000000
0.337002 0.620999 0.000000
0.319565 0.680606 0.000000
0.315126 0.748012 0.000000
0.353846 0.830879 0.000000
0.428438 0.905348 0.000000
0.637181 0.946023 0.000000
1.000000 0.963249 0.000000
0.000000 0.042754 0.000000
0.319734 0.058825 0.000000
0.523857 0.092554 0.000000
0.598995 0.153665 0.000000
0.644916 0.225724 0.000000
0.644773 0.284139 0.000000
0.633018 0.338839 0.000000
0.604945 0.379971 0.000000
0.569524 0.415076 0.000000
0.527147 0.436068 0.000000
0.482302 0.454641 0.000000
0.436068 0.472853 0.000000
0.391199 0.499783 0.000000
0.347769 0.535597 0.000000
0.310779 0.585758 0.000000
0.288809 0.646995 0.000000
0.284780 0.728852 0.000000
0.312982 0.816652 0.000000
0.388042 0.901255 0.000000
0.596412 0.950542 0.000000
1.000000 0.968242 0.000000
0.000000 0.049985 0.000000
0.273202 0.064250 0.000000
0.468138 0.092148 0.000000
0.547510 0.142436 0.000000
0.596109 0.202646 0.000000
0.601133 0.252556 0.000000
0.594505 0.301839 0.000000
0.570601 0.339299 0.000000
0.539041 0.372158 0.000000
0.500217 0.391199 0.000000
0.459639 0.410660 0.000000
0.415076 0.430476 0.000000
0.372158 0.460959 0.000000
0.326318 0.497850 0.000000
0.288092 0.553756 0.000000
0.260544 0.615889 0.000000
0.260996 0.710124 0.000000
0.275487 0.803945 0.000000
0.353295 0.896104 0.000000
0.557440 0.954562 0.000000
1.000000 0.972315 0.000000
0.000000 0.059144 0.000000
0.222273 0.070987 0.000000
0.396082 0.092237 0.000000
0.480715 0.129873 0.000000
0.533764 0.178031 0.000000
0.545194 0.220856 0.000000
0.544346 0.261876 0.000000
0.528211 0.295901 0.000000
0.502150 0.326318 0.000000
0.464403 0.347769 0.000000
0.423311 0.369793 0.000000
0.379971 0.395055 0.000000
0.339299 0.429399 0.000000
0.295901 0.471789 0.000000
0.260173 0.532265 0.000000
0.230991 0.600639 0.000000
0.239490 0.699841 0.000000
0.244143 0.800570 0.000000
0.324678 0.894028 0.000000
0.525071 0.958800 0.000000
1.000000 0.975777 0.000000
0.000000 0.071566 0.000000
0.174025 0.080051 0.000000
0.317935 0.097315 0.000000
0.400928 0.123492 0.000000
0.460874 0.159122 0.000000
0.477844 0.194141 0.000000
0.480949 0.230244 0.000000
0.467735 0.260173 0.000000
0.446244 0.288092 0.000000
0.414242 0.310779 0.000000
0.379001 0.337002 0.000000
0.338839 0.366982 0.000000
0.301839 0.405495 0.000000
0.261876 0.455654 0.000000
0.230244 0.519051 0.000000
0.202955 0.597835 0.000000
0.218211 0.697005 0.000000
0.218201 0.805036 0.000000
0.300254 0.895570 0.000000
0.498304 0.963220 0.000000
1.000000 0.978907 0.000000
0.000000 0.086560 0.000000
0.133320 0.094166 0.000000
0.242810 0.107273 0.000000
0.313296 0.128735 0.000000
0.363192 0.151737 0.000000
0.388576 0.176184 0.000000
0.402165 0.202955 0.000000
0.399361 0.230991 0.000000
0.384111 0.260544 0.000000
0.353005 0.288809 0.000000
0.319394 0.319565 0.000000
0.284139 0.355227 0.000000
0.252556 0.398867 0.000000
0.220856 0.454806 0.000000
0.194141 0.522156 0.000000
0.176184 0.611424 0.000000
0.194563 0.702865 0.000000
0.197627 0.817838 0.000000
0.278974 0.902079 0.000000
0.476422 0.968080 0.000000
1.000000 0.981988 0.000000
0.000000 0.107530 0.000000
0.088729 0.113574 0.000000
0.170389 0.122781 0.000000
0.233988 0.143042 0.000000
0.278270 0.169540 0.000000
0.297135 0.194563 0.000000
0.302995 0.218211 0.000000
0.300159 0.239490 0.000000
0.289876 0.260996 0.000000
0.271148 0.284780 0.000000
0.251988 0.315126 0.000000
0.225724 0.355084 0.000000
0.202646 0.403891 0.000000
0.178031 0.466236 0.000000
0.159122 0.539126 0.000000
0.151737 0.636808 0.000000
0.169540 0.721730 0.000000
0.182390 0.838111 0.000000
0.260281 0.914006 0.000000
0.460902 0.973520 0.000000
1.000000 0.985102 0.000000
0.000000 0.144447 0.000000
0.056021 0.152218 0.000000
0.100914 0.161759 0.000000
0.134132 0.171251 0.000000
0.161889 0.182390 0.000000
0.182162 0.197627 0.000000
0.194964 0.218201 0.000000
0.199430 0.244143 0.000000
0.196055 0.275487 0.000000
0.183348 0.312982 0.000000
0.169121 0.353846 0.000000
0.153665 0.401005 0.000000
0.142436 0.452490 0.000000
0.129873 0.519285 0.000000
0.123492 0.599072 0.000000
0.128735 0.686704 0.000000
0.143042 0.766012 0.000000
0.171251 0.865868 0.000000
0.240491 0.930698 0.000000
0.453444 0.979919 0.000000
1.000000 0.988435 0.000000
0.000000 0.195107 0.000000
0.027364 0.204348 0.000000
0.049568 0.220849 0.000000
0.069302 0.240491 0.000000
0.085994 0.260281 0.000000
0.097921 0.278974 0.000000
0.104430 0.300254 0.000000
0.105972 0.324678 0.000000
0.103896 0.353295 0.000000
0.098745 0.388042 0.000000
0.094652 0.428438 0.000000
0.092554 0.476143 0.000000
0.092148 0.531862 0.000000
0.092237 0.603918 0.000000
0.097315 0.682065 0.000000
0.107273 0.757190 0.000000
0.122781 0.829611 0.000000
0.161759 0.899086 0.000000
0.220849 0.950432 0.000000
0.456455 0.986847 0.000000
1.000000 0.992028 0.000000
0.000000 0.452419 0.000000
0.006561 0.454748 0.000000
0.013153 0.456455 0.000000
0.020081 0.453444 0.000000
0.026480 0.460902 0.000000
0.031920 0.476422 0.000000
0.036780 0.498304 0.000000
0.041200 0.525071 0.000000
0.045438 0.557440 0.000000
0.049458 0.596412 0.000000
0.053977 0.637181 0.000000
0.058825 0.680266 0.000000
0.064250 0.726798 0.000000
0.070987 0.777727 0.000000
0.080051 0.825975 0.000000
0.094166 0.866680 0.000000
0.113574 0.911271 0.000000
0.152218 0.943979 0.000000
0.204348 0.972636 0.000000
0.454748 0.993439 0.000000
1.000000 0.995927 0.000000
0.000000 1.000000 0.000000
0.004073 1.000000 0.000000
0.007972 1.000000 0.000000
0.011565 1.000000 0.000000
0.014898 1.000000 0.000000
0.018012 1.000000 0.000000
0.021093 1.000000 0.000000
0.024223 1.000000 0.000000
0.027685 1.000000 0.000000
0.031758 1.000000 0.000000
0.036751 1.000000 0.000000
0.042754 1.000000 0.000000
0.049985 1.000000 0.000000
0.059144 1.000000 0.000000
0.071566 1.000000 0.000000
0.086560 1.000000 0.000000
0.107530 1.000000 0.000000
0.144447 1.000000 0.000000
0.195107 1.000000 0.000000
0.452419 1.000000 0.000000
1.000000 1.000000 0.000000
0.000000 0.000000 0.082500
0.547581 0.000000 0.082500
0.804893 0.000000 0.082500
0.855553 0.000000 0.082500
0.892470 0.000000 0.082500
0.913440 0.000000 0.082500
0.928434 0.000000 0.082500
0.940856 0.000000 0.082500
0.950015 0.000000 0.082500
0.957246 0.000000 0.082500
0.963249 0.000000 0.082500
0.968242 0.000000 0.082500
0.972315 0.000000 0.082500
0.975777 0.000000 0.082500
0.978907 0.000000 0.082500
0.981988 0.000000 0.082500
0.985102 0.000000 0.082500
0.988435 0.000000 0.082500
0.992028 0.000000 0.082500
0.995927 0.000000 0.082500
1.000000 0.000000 0.082500
0.000000 0.004073 0.082500
0.545252 0.006561 0.082500
0.795652 0.027364 0.082500
0.847782 0.056021 0.082500
0.886426 0.088729 0.082500
0.905834 0.133320 0.082500
0.919949 0.174025 0.082500
0.929013 0.222273 0.082500
0.935750 0.273202 0.082500
0.941175 0.319734 0.082500
0.946023 0.362819 0.082500
0.950542 0.403588 0.082500
0.954562 0.442560 0.082500
0.958800 0.474929 0.082500
0.963220 0.501696 0.082500
0.968080 0.523578 0.082500
0.973520 0.539098 0.082500
0.979919 0.546556 0.082500
0.986847 0.543545 0.082500
0.993439 0.545252 0.082500
1.000000 0.547581 0.082500
0.000000 0.007972 0.082500
0.543545 0.013153 0.082500
0.779151 0.049568 0.082500
0.838241 0.100914 0.082500
0.877219 0.170389 0.082500
0.892727 0.242810 0.082500
0.902685 0.317935 0.082500
0.907763 0.396082 0.082500
0.907852 0.468138 0.082500
0.907446 0.523857 0.082500
0.905348 0.571562 0.082500
0.901255 0.611958 0.082500
0.896104 0.646705 0.082500
0.894028 0.675322 0.082500
0.895570 0.699746 0.082500
0.902079 0.721026 0.082500
0.914006 0.739719 0.082500
0.930698 0.759509 0.082500
0.950432 0.779151 0.082500
0.972636 0.795652 0.082500
1.000000 0.804893 0.082500
0.000000 0.011565 0.082500
0.546556 0.020081 0.082500
0.759509 0.069302 0.082500
0.828749 0.134132 0.082500
0.856958 0.233988 0.082500
0.871265 0.313296 0.082500
0.876508 0.400928 0.082500
0.870127 0.480715 0.082500
0.857564 0.547510 0.082500
0.846335 0.598995 0.082500
0.830879 0.646154 0.082500
0.816652 0.687018 0.082500
0.803945 0.724513 0.082500
0.800570 0.755857 0.082500
0.805036 0.781799 0.082500
0.817838 0.802373 0.082500
0.838111 0.817610 0.082500
0.865868 0.828749 0.082500
0.899086 0.838241 0.082500
0.943979 0.847782 0.082500
1.000000 0.855553 0.082500
0.000000 0.014898 0.082500
0.539098 0.026480 0.082500
0.739719 0.085994 0.082500
0.817610 0.161889 0.082500
0.830460 0.278270 0.082500
0.848263 0.363192 0.082500
0.840878 0.460874 0.082500
0.821969 0.533764 0.082500
0.797354 0.596109 0.082500
0.774276 0.644916 0.082500
0.748012 0.684874 0.082500
0.728852 0.715220 0.082500
0.710124 0.739004 0.082500
0.699841 0.760510 0.082500
0.697005 0.781789 0.082500
0.702865 0.805437 0.082500
0.721730 0.830460 0.082500
0.766012 0.856958 0.082500
0.829611 0.877219 0.082500
0.911271 0.886426 0.082500
1.000000 0.892470 0.082500
0.000000 0.018012 0.082500
0.523578 0.031920 0.082500
0.721026 0.097921 0.082500
0.802373 0.182162 0.082500
0.805437 0.297135 0.082500
0.823816 0.388576 0.082500
0.805859 0.477844 0.082500
0.779144 0.545194 0.082500
0.747444 0.601133 0.082500
0.715861 0.644773 0.082500
0.680606 0.680435 0.082500
0.646995 0.711191 0.082500
0.615889 0.739456 0.082500
0.600639 0.769009 0.082500
0.597835 0.797045 0.082500
0.611424 0.823816 0.082500
0.636808 0.848263 0.082500
0.686704 0.871265 0.082500
0.757190 0.892727 0.082500
0.866680 0.905834 0.082500
1.000000 0.913440 0.082500
0.000000 0.021093 0.082500
0.501696 0.036780 0.082500
0.699746 0.104430 0.082500
0.781799 0.194964 0.082500
0.781789 0.302995 0.082500
0.797045 0.402165 0.082500
0.769756 0.480949 0.082500
0.738124 0.544346 0.082500
0.698161 0.594505 0.082500
0.661161 0.633018 0.082500
0.620999 0.662998 0.082500
0.585758 0.689221 0.082500
0.553756 0.711908 0.082500
0.532265 0.739827 0.082500
0.519051 0.769756 0.082500
0.522156 0.805859 0.082500
0.539126 0.840878 0.082500
0.599072 0.876508 0.082500
0.682065 0.902685 0.082500
0.825975 0.919949 0.082500
1.000000 0.928434 0.082500
0.000000 0.024223 0.082500
0.474929 0.041200 0.082500
0.675322 0.105972 0.082500
0.755857 0.199430 0.082500
0.760510 0.300159 0.082500
0.769009 0.399361 0.082500
0.739827 0.467735 0.082500
0.704099 0.528211 0.082500
0.660701 0.570601 0.082500
0.620029 0.604945 0.082500
0.576689 0.630207 0.082500
0.535597 0.652231 0.082500
0.497850 0.673682 0.082500
0.471789 0.704099 0.082500
0.455654 0.738124 0.082500
0.454806 0.779144 0.082500
0.466236 0.821969 0.082500
0.519285 0.870127 0.082500
0.603918 0.907763 0.082500
0.777727 0.929013 0.082500
1.000000 0.940856 0.082500
0.000000 0.027685 0.082500
0.442560 0.045438 0.082500
0.646705 0.103896 0.082500
0.724513 0.196055 0.082500
0.739004 0.289876 0.082500
0.739456 0.384111 0.082500
0.711908 0.446244 0.082500
0.673682 0.502150 0.082500
0.627842 0.539041 0.082500
0.584924 0.569524 0.082500
0.540361 0.589340 0.082500
0.499783 0.608801 0.082500
0.460959 0.627842 0.082500
0.429399 0.660701 0.082500
0.405495 0.698161 0.082500
0.398867 0.747444 0.082500
0.403891 0.797354 0.082500
0.452490 0.857564 0.082500
0.531862 0.907852 0.082500
0.726798 0.935750 0.082500
1.000000 0.950015 0.082500
0.000000 0.031758 0.082500
0.403588 0.049458 0.082500
0.611958 0.098745 0.082500
0.687018 0.183348 0.082500
0.715220 0.271148 0.082500
0.711191 0.353005 0.082500
0.689221 0.414242 0.082500
0.652231 0.464403 0.082500
0.608801 0.500217 0.082500
0.563932 0.527147 0.082500
0.517698 0.545359 0.082500
0.472853 0.563932 0.082500
0.430476 0.584924 0.082500
0.395055 0.620029 0.082500
0.366982 0.661161 0.082500
0.355227 0.715861 0.082500
0.355084 0.774276 0.082500
0.401005 0.846335 0.082500
0.476143 0.907446 0.082500
0.680266 0.941175 0.082500
1.000000 0.957246 0.082500
0.000000 0.036751 0.082500
0.362819 0.053977 0.082500
0.571562 0.094652 0.082500
0.646154 0.169121 0.082500
0.684874 0.251988 0.082500
0.680435 0.319394 0.082500
0.662998 0.379001 0.082500
0.630207 0.423311 0.082500
0.589340 0.459639 0.082500
0.545359 0.482302 0.082500
0.500000 0.500000 0.082500
0.454641 0.517698 0.082500
0.410660 0.540361 0.082500
0.369793 0.576689 0.082500
0.337002 0.620999 0.082500
0.319565 0.680606 0.082500
0.315126 0.748012 0.082500
0.353846 0.830879 0.082500
0.428438 0.905348 0.082500
0.637181 0.946023 0.082500
1.000000 0.963249 0.082500
0.000000 0.042754 0.082500
0.319734 0.058825 0.082500
0.523857 0.092554 0.082500
0.598995 0.153665 0.082500
0.644916 0.225724 0.082500
0.644773 0.284139 0.082500
0.633018 0.338839 0.082500
0.604945 0.379971 0.082500
0.569524 0.415076 0.082500
0.527147 0.436068 0.082500
0.482302 0.454641 0.082500
0.436068 0.472853 0.082500
0.391199 0.499783 0.082500
0.347769 0.535597 0.082500
0.310779 0.585758 0.082500
0.288809 0.646995 0.082500
0.284780 0.728852 0.082500
0.312982 0.816652 0.082500
0.388042 0.901255 0.082500
0.596412 0.950542 0.082500
1.000000 0.968242 0.082500
0.000000 0.049985 0.082500
0.273202 0.064250 0.082500
0.468138 0.092148 0.082500
0.547510 0.142436 0.082500
0.596109 0.202646 0.082500
0.601133 0.252556 0.082500
0.594505 0.301839 0.082500
0.570601 0.339299 0.082500
0.539041 0.372158 0.082500
0.500217 0.391199 0.082500
0.459639 0.410660 0.082500
0.415076 0.430476 0.082500
0.372158 0.460959 0.082500
0.326318 0.497850 0.082500
0.288092 0.553756 0.082500
0.260544 0.615889 0.082500
0.260996 0.710124 0.082500
0.275487 0.803945 0.082500
0.353295 0.896104 0.082500
0.557440 0.954562 0.082500
1.000000 0.972315 0.082500
0.000000 0.059144 0.082500
0.222273 0.070987 0.082500
0.396082 0.092237 0.082500
0.480715 0.129873 0.082500
0.533764 0.178031 0.082500
0.545194 0.220856 0.082500
0.544346 0.261876 0.082500
0.528211 0.295901 0.082500
0.502150 0.326318 0.082500
0.464403 0.347769 0.082500
0.423311 0.369793 0.082500
0.379971 0.395055 0.082500
0.339299 0.429399 0.082500
0.295901 0.471789 0.082500
0.260173 0.532265 0.082500
0.230991 0.600639 0.082500
0.239490 0.699841 0.082500
0.244143 0.800570 0.082500
0.324678 0.894028 0.082500
0.525071 0.958800 0.082500
1.000000 0.975777 0.082500
0.000000 0.071566 0.082500
0.174025 0.080051 0.082500
0.317935 0.097315 0.082500
0.400928 0.123492 0.082500