# vtk DataFile Version 2.0
Mesh for Fierro
ASCII 
DATASET UNSTRUCTURED_GRID

POINTS 2205 float
0.000000 0.000000 0.000000
0.527878 0.000000 0.000000
0.901105 0.000000 0.000000
0.934157 0.000000 0.000000
0.943694 0.000000 0.000000
0.952879 0.000000 0.000000
0.960552 0.000000 0.000000
0.967445 0.000000 0.000000
0.972716 0.000000 0.000000
0.977115 0.000000 0.000000
0.980991 0.000000 0.000000
0.983909 0.000000 0.000000
0.985953 0.000000 0.000000
0.987358 0.000000 0.000000
0.988422 0.000000 0.000000
0.989182 0.000000 0.000000
0.989731 0.000000 0.000000
0.990896 0.000000 0.000000
0.993178 0.000000 0.000000
0.997448 0.000000 0.000000
1.000000 0.000000 0.000000
0.000000 0.002552 0.000000
0.584975 0.005070 0.000000
0.908182 0.040799 0.000000
0.905456 0.146976 0.000000
0.922723 0.180663 0.000000
0.932162 0.238064 0.000000
0.937835 0.297248 0.000000
0.939694 0.370293 0.000000
0.940860 0.441462 0.000000
0.942952 0.495136 0.000000
0.945317 0.547153 0.000000
0.948183 0.594741 0.000000
0.951711 0.632242 0.000000
0.956280 0.659242 0.000000
0.961119 0.679544 0.000000
0.966175 0.697860 0.000000
0.972223 0.702312 0.000000
0.979328 0.687954 0.000000
0.987564 0.646987 0.000000
0.994930 0.584975 0.000000
1.000000 0.527878 0.000000
0.000000 0.006822 0.000000
0.646987 0.012436 0.000000
0.899547 0.077643 0.000000
0.877882 0.206146 0.000000
0.911141 0.273796 0.000000
0.914247 0.409303 0.000000
0.911223 0.518789 0.000000
0.910558 0.601436 0.000000
0.902484 0.669732 0.000000
0.898217 0.710854 0.000000
0.887453 0.740815 0.000000
0.876753 0.758274 0.000000
0.878004 0.774700 0.000000
0.881791 0.792539 0.000000
0.885085 0.809936 0.000000
0.887527 0.827460 0.000000
0.890918 0.846903 0.000000
0.901630 0.872604 0.000000
0.922357 0.899547 0.000000
0.959201 0.908182 0.000000
1.000000 0.901105 0.000000
0.000000 0.009104 0.000000
0.687954 0.020672 0.000000
0.872604 0.098370 0.000000
0.877592 0.261778 0.000000
0.891729 0.408460 0.000000
0.884192 0.512053 0.000000
0.877459 0.593456 0.000000
0.854955 0.654665 0.000000
0.823164 0.697710 0.000000
0.794240 0.730396 0.000000
0.750131 0.764118 0.000000
0.710597 0.798503 0.000000
0.699028 0.819932 0.000000
0.696340 0.835606 0.000000
0.698175 0.848876 0.000000
0.703358 0.861618 0.000000
0.712665 0.872189 0.000000
0.738222 0.877592 0.000000
0.793854 0.877882 0.000000
0.853024 0.905456 0.000000
1.000000 0.934157 0.000000
0.000000 0.010269 0.000000
0.702312 0.027777 0.000000
0.846903 0.109082 0.000000
0.872189 0.287335 0.000000
0.854106 0.455646 0.000000
0.854052 0.530828 0.000000
0.835280 0.622710 0.000000
0.774904 0.685280 0.000000
0.725607 0.722514 0.000000
0.683053 0.750280 0.000000
0.648453 0.768982 0.000000
0.622813 0.776623 0.000000
0.594319 0.782586 0.000000
0.570211 0.793611 0.000000
0.553191 0.809707 0.000000
0.542524 0.828405 0.000000
0.544354 0.854106 0.000000
0.591540 0.891729 0.000000
0.726204 0.911141 0.000000
0.819337 0.922723 0.000000
1.000000 0.943694 0.000000
0.000000 0.010818 0.000000
0.697860 0.033825 0.000000
0.827460 0.112473 0.000000
0.861618 0.296642 0.000000
0.828405 0.457476 0.000000
0.823739 0.551405 0.000000
0.797123 0.632366 0.000000
0.726438 0.673616 0.000000
0.674913 0.703566 0.000000
0.625289 0.724661 0.000000
0.568089 0.732072 0.000000
0.515402 0.740888 0.000000
0.469692 0.753011 0.000000
0.447051 0.773263 0.000000
0.436273 0.795255 0.000000
0.448595 0.823739 0.000000
0.469172 0.854052 0.000000
0.487947 0.884192 0.000000
0.590697 0.914247 0.000000
0.761936 0.932162 0.000000
1.000000 0.952879 0.000000
0.000000 0.011578 0.000000
0.679544 0.038881 0.000000
0.809936 0.114915 0.000000
0.848876 0.301825 0.000000
0.809707 0.446809 0.000000
0.795255 0.563727 0.000000
0.749694 0.628772 0.000000
0.683236 0.653486 0.000000
0.624987 0.680741 0.000000
0.569279 0.691584 0.000000
0.516224 0.693074 0.000000
0.472918 0.701686 0.000000
0.434110 0.704603 0.000000
0.399174 0.722870 0.000000
0.371228 0.749694 0.000000
0.367634 0.797123 0.000000
0.377290 0.835280 0.000000
0.406544 0.877459 0.000000
0.481211 0.911223 0.000000
0.702752 0.937835 0.000000
1.000000 0.960552 0.000000
0.000000 0.012642 0.000000
0.659242 0.043720 0.000000
0.792539 0.118209 0.000000
0.835606 0.303660 0.000000
0.793611 0.429789 0.000000
0.773263 0.552949 0.000000
0.722870 0.600826 0.000000
0.658223 0.626530 0.000000
0.597751 0.645076 0.000000
0.544537 0.648054 0.000000
0.492164 0.645435 0.000000
0.446163 0.641878 0.000000
0.405700 0.642455 0.000000
0.373470 0.658223 0.000000
0.346514 0.683236 0.000000
0.326384 0.726438 0.000000
0.314720 0.774904 0.000000
0.345335 0.854955 0.000000
0.398564 0.910558 0.000000
0.629707 0.939694 0.000000
1.000000 0.967445 0.000000
0.000000 0.014047 0.000000
0.632242 0.048289 0.000000
0.774700 0.121996 0.000000
0.819932 0.300972 0.000000
0.782586 0.405681 0.000000
0.753011 0.530308 0.000000
0.704603 0.565890 0.000000
0.642455 0.594300 0.000000
0.583033 0.599858 0.000000
0.531771 0.601975 0.000000
0.485530 0.594980 0.000000
0.442459 0.588324 0.000000
0.400142 0.583033 0.000000
0.354924 0.597751 0.000000
0.319259 0.624987 0.000000
0.296434 0.674913 0.000000
0.277486 0.725607 0.000000
0.302290 0.823164 0.000000
0.330268 0.902484 0.000000
0.558538 0.940860 0.000000
1.000000 0.972716 0.000000
0.000000 0.016091 0.000000
0.594741 0.051817 0.000000
0.758274 0.123247 0.000000
0.798503 0.289403 0.000000
0.776623 0.377187 0.000000
0.740888 0.484598 0.000000
0.701686 0.527082 0.000000
0.641878 0.553837 0.000000
0.588324 0.557541 0.000000
0.536886 0.556488 0.000000
0.489198 0.546097 0.000000
0.443512 0.536886 0.000000
0.398025 0.531771 0.000000
0.351946 0.544537 0.000000
0.308416 0.569279 0.000000
0.275339 0.625289 0.000000
0.249720 0.683053 0.000000
0.269604 0.794240 0.000000
0.289146 0.898217 0.000000
0.504864 0.942952 0.000000
1.000000 0.977115 0.000000
0.000000 0.019009 0.000000
0.547153 0.054683 0.000000
0.740815 0.112547 0.000000
0.764118 0.249869 0.000000
0.768982 0.351547 0.000000
0.732072 0.431911 0.000000
0.693074 0.483776 0.000000
0.645435 0.507836 0.000000
0.594980 0.514470 0.000000
0.546097 0.510802 0.000000
0.500000 0.500000 0.000000
0.453903 0.489198 0.000000
0.405020 0.485530 0.000000
0.354565 0.492164 0.000000
0.306926 0.516224 0.000000
0.267928 0.568089 0.000000
0.231018 0.648453 0.000000
0.235882 0.750131 0.000000
0.259185 0.887453 0.000000
0.452847 0.945317 0.000000
1.000000 0.980991 0.000000
0.000000 0.022885 0.000000
0.495136 0.057048 0.000000
0.710854 0.101783 0.000000
0.730396 0.205760 0.000000
0.750280 0.316947 0.000000
0.724661 0.374711 0.000000
0.691584 0.430721 0.000000
0.648054 0.455463 0.000000
0.601975 0.468229 0.000000
0.556488 0.463114 0.000000
0.510802 0.453903 0.000000
0.463114 0.443512 0.000000
0.411676 0.442459 0.000000
0.358122 0.446163 0.000000
0.298314 0.472918 0.000000
0.259112 0.515402 0.000000
0.223377 0.622813 0.000000
0.201497 0.710597 0.000000
0.241726 0.876753 0.000000
0.405259 0.948183 0.000000
1.000000 0.983909 0.000000
0.000000 0.027284 0.000000
0.441462 0.059140 0.000000
0.669732 0.097516 0.000000
0.697710 0.176836 0.000000
0.722514 0.274393 0.000000
0.703566 0.325087 0.000000
0.680741 0.375013 0.000000
0.645076 0.402249 0.000000
0.599858 0.416967 0.000000
0.557541 0.411676 0.000000
0.514470 0.405020 0.000000
0.468229 0.398025 0.000000
0.416967 0.400142 0.000000
0.357545 0.405700 0.000000
0.295397 0.434110 0.000000
0.246989 0.469692 0.000000
0.217414 0.594319 0.000000
0.180068 0.699028 0.000000
0.225300 0.878004 0.000000
0.367758 0.951711 0.000000
1.000000 0.985953 0.000000
0.000000 0.032555 0.000000
0.370293 0.060306 0.000000
0.601436 0.089442 0.000000
0.654665 0.145045 0.000000
0.685280 0.225096 0.000000
0.673616 0.273562 0.000000
0.653486 0.316764 0.000000
0.626530 0.341777 0.000000
0.594300 0.357545 0.000000
0.553837 0.358122 0.000000
0.507836 0.354565 0.000000
0.455463 0.351946 0.000000
0.402249 0.354924 0.000000
0.341777 0.373470 0.000000
0.277130 0.399174 0.000000
0.226737 0.447051 0.000000
0.206389 0.570211 0.000000
0.164394 0.696340 0.000000
0.207461 0.881791 0.000000
0.340758 0.956280 0.000000
1.000000 0.987358 0.000000
0.000000 0.039448 0.000000
0.297248 0.062165 0.000000
0.518789 0.088777 0.000000
0.593456 0.122541 0.000000
0.622710 0.164720 0.000000
0.632366 0.202877 0.000000
0.628772 0.250306 0.000000
0.600826 0.277130 0.000000
0.565890 0.295397 0.000000
0.527082 0.298314 0.000000
0.483776 0.306926 0.000000
0.430721 0.308416 0.000000
0.375013 0.319259 0.000000
0.316764 0.346514 0.000000
0.250306 0.371228 0.000000
0.204745 0.436273 0.000000
0.190293 0.553191 0.000000
0.151124 0.698175 0.000000
0.190064 0.885085 0.000000
0.320456 0.961119 0.000000
1.000000 0.988422 0.000000
0.000000 0.047121 0.000000
0.238064 0.067838 0.000000
0.409303 0.085753 0.000000
0.512053 0.115808 0.000000
0.530828 0.145948 0.000000
0.551405 0.176261 0.000000
0.563727 0.204745 0.000000
0.552949 0.226737 0.000000
0.530308 0.246989 0.000000
0.484598 0.259112 0.000000
0.431911 0.267928 0.000000
0.374711 0.275339 0.000000
0.325087 0.296434 0.000000
0.273562 0.326384 0.000000
0.202877 0.367634 0.000000
0.176261 0.448595 0.000000
0.171595 0.542524 0.000000
0.138382 0.703358 0.000000
0.172540 0.887527 0.000000
0.302140 0.966175 0.000000
1.000000 0.989182 0.000000
0.000000 0.056306 0.000000
0.180663 0.077277 0.000000
0.273796 0.088859 0.000000
0.408460 0.108271 0.000000
0.455646 0.145894 0.000000
0.457476 0.171595 0.000000
0.446809 0.190293 0.000000
0.429789 0.206389 0.000000
0.405681 0.217414 0.000000
0.377187 0.223377 0.000000
0.351547 0.231018 0.000000
0.316947 0.249720 0.000000
0.274393 0.277486 0.000000
0.225096 0.314720 0.000000
0.164720 0.377290 0.000000
0.145948 0.469172 0.000000
0.145894 0.544354 0.000000
0.127811 0.712665 0.000000
0.153097 0.890918 0.000000
0.297688 0.972223 0.000000
1.000000 0.989731 0.000000
0.000000 0.065843 0.000000
0.146976 0.094544 0.000000
0.206146 0.122118 0.000000
0.261778 0.122408 0.000000
0.287335 0.127811 0.000000
0.296642 0.138382 0.000000
0.301825 0.151124 0.000000
0.303660 0.164394 0.000000
0.300972 0.180068 0.000000
[...]
POINT_DATA 2205 
VECTORS pos float 
0.000000 0.000000 0.000000
0.527878 0.000000 0.000000
0.901105 0.000000 0.000000
0.934157 0.000000 0.000000
0.943694 0.000000 0.000000
0.952879 0.000000 0.000000
0.960552 0.000000 0.000000
0.967445 0.000000 0.000000
0.972716 0.000000 0.000000
0.977115 0.000000 0.000000
0.980991 0.000000 0.000000
0.983909 0.000000 0.000000
0.985953 0.000000 0.000000
0.987358 0.000000 0.000000
0.988422 0.000000 0.000000
0.989182 0.000000 0.000000
0.989731 0.000000 0.000000
0.990896 0.000000 0.000000
0.993178 0.000000 0.000000
0.997448 0.000000 0.000000
1.000000 0.000000 0.000000
0.000000 0.002552 0.000000
0.584975 0.005070 0.000000
0.908182 0.040799 0.000000
0.905456 0.146976 0.000000
0.922723 0.180663 0.000000
0.932162 0.238064 0.000000
0.937835 0.297248 0.000000
0.939694 0.370293 0.000000
0.940860 0.441462 0.000000
0.942952 0.495136 0.000000
0.945317 0.547153 0.000000
0.948183 0.594741 0.000000
0.951711 0.632242 0.000000
0.956280 0.659242 0.000000
0.961119 0.679544 0.000000
0.966175 0.697860 0.000000
0.972223 0.702312 0.000000
0.979328 0.687954 0.000000
0.987564 0.646987 0.000000
0.994930 0.584975 0.000000
1.000000 0.527878 0.000000
0.000000 0.006822 0.000000
0.646987 0.012436 0.000000
0.899547 0.077643 0.000000
0.877882 0.206146 0.000000
0.911141 0.273796 0.000000
0.914247 0.409303 0.000000
0.911223 0.518789 0.000000
0.910558 0.601436 0.000000
0.902484 0.669732 0.000000
0.898217 0.710854 0.000000
0.887453 0.740815 0.000000
0.876753 0.758274 0.000000
0.878004 0.774700 0.000000
0.881791 0.792539 0.000000
0.885085 0.809936 0.000000
0.887527 0.827460 0.000000
0.890918 0.846903 0.000000
0.901630 0.872604 0.000000
0.922357 0.899547 0.000000
0.959201 0.908182 0.000000
1.000000 0.901105 0.000000
0.000000 0.009104 0.000000
0.687954 0.020672 0.000000
0.872604 0.098370 0.000000
0.877592 0.261778 0.000000
0.891729 0.408460 0.000000
0.884192 0.512053 0.000000
0.877459 0.593456 0.000000
0.854955 0.654665 0.000000
0.823164 0.697710 0.000000
0.794240 0.730396 0.000000
0.750131 0.764118 0.000000
0.710597 0.798503 0.000000
0.699028 0.819932 0.000000
0.696340 0.835606 0.000000
0.698175 0.848876 0.000000
0.703358 0.861618 0.000000
0.712665 0.872189 0.000000
0.738222 0.877592 0.000000
0.793854 0.877882 0.000000
0.853024 0.905456 0.000000
1.000000 0.934157 0.000000
0.000000 0.010269 0.000000
0.702312 0.027777 0.000000
0.846903 0.109082 0.000000
0.872189 0.287335 0.000000
0.854106 0.455646 0.000000
0.854052 0.530828 0.000000
0.835280 0.622710 0.000000
0.774904 0.685280 0.000000
0.725607 0.722514 0.000000
0.683053 0.750280 0.000000
0.648453 0.768982 0.000000
0.622813 0.776623 0.000000
0.594319 0.782586 0.000000
0.570211 0.793611 0.000000
0.553191 0.809707 0.000000
0.542524 0.828405 0.000000
0.544354 0.854106 0.000000
0.591540 0.891729 0.000000
0.726204 0.911141 0.000000
0.819337 0.922723 0.000000
1.000000 0.943694 0.000000
0.000000 0.010818 0.000000
0.697860 0.033825 0.000000
0.827460 0.112473 0.000000
0.861618 0.296642 0.000000
0.828405 0.457476 0.000000
0.823739 0.551405 0.000000
0.797123 0.632366 0.000000
0.726438 0.673616 0.000000
0.674913 0.703566 0.000000
0.625289 0.724661 0.000000
0.568089 0.732072 0.000000
0.515402 0.740888 0.000000
0.469692 0.753011 0.000000
0.447051 0.773263 0.000000
0.436273 0.795255 0.000000
0.448595 0.823739 0.000000
0.469172 0.854052 0.000000
0.487947 0.884192 0.000000
0.590697 0.914247 0.000000
0.761936 0.932162 0.000000
1.000000 0.952879 0.000000
0.000000 0.011578 0.000000
0.679544 0.038881 0.000000
0.809936 0.114915 0.000000
0.848876 0.301825 0.000000
0.809707 0.446809 0.000000
0.795255 0.563727 0.000000
0.749694 0.628772 0.000000
0.683236 0.653486 0.000000
0.624987 0.680741 0.000000
0.569279 0.691584 0.000000
0.516224 0.693074 0.000000
0.472918 0.701686 0.000000
0.434110 0.704603 0.000000
0.399174 0.722870 0.000000
0.371228 0.749694 0.000000
0.367634 0.797123 0.000000
0.377290 0.835280 0.000000
0.406544 0.877459 0.000000
0.481211 0.911223 0.000000
0.702752 0.937835 0.000000
1.000000 0.960552 0.000000
0.000000 0.012642 0.000000
0.659242 0.043720 0.000000
0.792539 0.118209 0.000000
0.835606 0.303660 0.000000
0.793611 0.429789 0.000000
0.773263 0.552949 0.000000
0.722870 0.600826 0.000000
0.658223 0.626530 0.000000
0.597751 0.645076 0.000000
0.544537 0.648054 0.000000
0.492164 0.645435 0.000000
0.446163 0.641878 0.000000
0.405700 0.642455 0.000000
0.373470 0.658223 0.000000
0.346514 0.683236 0.000000
0.326384 0.726438 0.000000
0.314720 0.774904 0.000000
0.345335 0.854955 0.000000
0.398564 0.910558 0.000000
0.629707 0.939694 0.000000
1.000000 0.967445 0.000000
0.000000 0.014047 0.000000
0.632242 0.048289 0.000000
0.774700 0.121996 0.000000
0.819932 0.300972 0.000000
0.782586 0.405681 0.000000
0.753011 0.530308 0.000000
0.704603 0.565890 0.000000
0.642455 0.594300 0.000000
0.583033 0.599858 0.000000
0.531771 0.601975 0.000000
0.485530 0.594980 0.000000
0.442459 0.588324 0.000000
0.400142 0.583033 0.000000
0.354924 0.597751 0.000000
0.319259 0.624987 0.000000
0.296434 0.674913 0.000000
0.277486 0.725607 0.000000
0.302290 0.823164 0.000000
0.330268 0.902484 0.000000
0.558538 0.940860 0.000000
1.000000 0.972716 0.000000
0.000000 0.016091 0.000000
0.594741 0.051817 0.000000
0.758274 0.123247 0.000000
0.798503 0.289403 0.000000
0.776623 0.377187 0.000000
0.740888 0.484598 0.000000
0.701686 0.527082 0.000000
0.641878 0.553837 0.000000
0.588324 0.557541 0.000000
0.536886 0.556488 0.000000
0.489198 0.546097 0.000000
0.443512 0.536886 0.000000
0.398025 0.531771 0.000000
0.351946 0.544537 0.000000
0.308416 0.569279 0.000000
0.275339 0.625289 0.000000
0.249720 0.683053 0.000000
0.269604 0.794240 0.000000
0.289146 0.898217 0.000000
0.504864 0.942952 0.000000
1.000000 0.977115 0.000000
0.000000 0.019009 0.000000
0.547153 0.054683 0.000000
0.740815 0.112547 0.000000
0.764118 0.249869 0.000000
0.768982 0.351547 0.000000
0.732072 0.431911 0.000000
0.693074 0.483776 0.000000
0.645435 0.507836 0.000000
0.594980 0.514470 0.000000
0.546097 0.510802 0.000000
0.500000 0.500000 0.000000
0.453903 0.489198 0.000000
0.405020 0.485530 0.000000
0.354565 0.492164 0.000000
0.306926 0.516224 0.000000
0.267928 0.568089 0.000000
0.231018 0.648453 0.000000
0.235882 0.750131 0.000000
0.259185 0.887453 0.000000
0.452847 0.945317 0.000000
1.000000 0.980991 0.000000
0.000000 0.022885 0.000000
0.495136 0.057048 0.000000
0.710854 0.101783 0.000000
0.730396 0.205760 0.000000
0.750280 0.316947 0.000000
0.724661 0.374711 0.000000
0.691584 0.430721 0.000000
0.648054 0.455463 0.000000
0.601975 0.468229 0.000000
0.556488 0.463114 0.000000
0.510802 0.453903 0.000000
0.463114 0.443512 0.000000
0.411676 0.442459 0.000000
0.358122 0.446163 0.000000
0.298314 0.472918 0.000000
0.259112 0.515402 0.000000
0.223377 0.622813 0.000000
0.201497 0.710597 0.000000
0.241726 0.876753 0.000000
0.405259 0.948183 0.000000
1.000000 0.983909 0.000000
0.000000 0.027284 0.000000
0.441462 0.059140 0.000000
0.669732 0.097516 0.000000
0.697710 0.176836 0.000000
0.722514 0.274393 0.000000
0.703566 0.325087 0.000000
0.680741 0.375013 0.000000
0.645076 0.402249 0.000000
0.599858 0.416967 0.000000
0.557541 0.411676 0.000000
0.514470 0.405020 0.000000
0.468229 0.398025 0.000000
0.416967 0.400142 0.000000
0.357545 0.405700 0.000000
0.295397 0.434110 0.000000
0.246989 0.469692 0.000000
0.217414 0.594319 0.000000
0.180068 0.699028 0.000000
0.225300 0.878004 0.000000
0.367758 0.951711 0.000000
1.000000 0.985953 0.000000
0.000000 0.032555 0.000000
0.370293 0.060306 0.000000
0.601436 0.089442 0.000000
0.654665 0.145045 0.000000
0.685280 0.225096 0.000000
0.673616 0.273562 0.000000
0.653486 0.316764 0.000000
0.626530 0.341777 0.000000
0.594300 0.357545 0.000000
0.553837 0.358122 0.000000
0.507836 0.354565 0.000000
0.455463 0.351946 0.000000
0.402249 0.354924 0.000000
0.341777 0.373470 0.000000
0.277130 0.399174 0.000000
0.226737 0.447051 0.000000
0.206389 0.570211 0.000000
0.164394 0.696340 0.000000
0.207461 0.881791 0.000000
0.340758 0.956280 0.000000
1.000000 0.987358 0.000000
0.000000 0.039448 0.000000
0.297248 0.062165 0.000000
0.518789 0.088777 0.000000
0.593456 0.122541 0.000000
0.622710 0.164720 0.000000
0.632366 0.202877 0.000000
0.628772 0.250306 0.000000
0.600826 0.277130 0.000000
0.565890 0.295397 0.000000
0.527082 0.298314 0.000000
0.483776 0.306926 0.000000
0.430721 0.308416 0.000000
0.375013 0.319259 0.000000
0.316764 0.346514 0.000000
0.250306 0.371228 0.000000
0.204745 0.436273 0.000000
0.190293 0.553191 0.000000
0.151124 0.698175 0.000000
0.190064 0.885085 0.000000
0.320456 0.961119 0.000000
1.000000 0.988422 0.000000
0.000000 0.047121 0.000000
0.238064 0.067838 0.000000
0.409303 0.085753 0.000000
0.512053 0.115808 0.000000
0.530828 0.145948 0.000000
0.551405 0.176261 0.000000
0.563727 0.204745 0.000000
0.552949 0.226737 0.000000
0.530308 0.246989 0.000000
0.484598 0.259112 0.000000
0.431911 0.267928 0.000000
0.374711 0.275339 0.000000
0.325087 0.296434 0.000000
0.273562 0.326384 0.000000
0.202877 0.367634 0.000000
0.176261 0.448595 0.000000
0.171595 0.542524 0.000000
0.138382 0.703358 0.000000
0.172540 0.887527 0.000000
0.302140 0.966175 0.000000
1.000000 0.989182 0.000000
0.000000 0.056306 0.000000
0.180663 0.077277 0.000000
0.273796 0.088859 0.000000
0.408460 0.108271 0.000000
0.455646 0.145894 0.000000
0.457476 0.171595 0.000000
0.446809 0.190293 0.000000
0.429789 0.206389 0.000000
0.405681 0.217414 0.000000
0.377187 0.223377 0.000000
0.351547 0.231018 0.000000
0.316947 0.249720 0.000000
0.274393 0.277486 0.000000
0.225096 0.314720 0.000000
0.164720 0.377290 0.000000
0.145948 0.469172 0.000000
0.145894 0.544354 0.000000
0.127811 0.712665 0.000000
0.153097 0.890918 0.000000
0.297688 0.972223 0.000000
1.000000 0.989731 0.000000
0.000000 0.065843 0.000000
0.146976 0.094544 0.000000
0.206146 0.122118 0.000000
0.261778 0.122408 0.000000
0.287335 0.127811 0.000000
0.296642 0.138382 0.000000
0.301825 0.151124 0.000000
0.303660 0.164394 0.000000
0.300972 0.180068 0.000000
0.289403 0.201497 0.000000
0.249869 0.235882 0.000000
0.205760 0.269604 0.000000
0.176836 0.302290 0.000000
0.145045 0.345335 0.000000
0.122541 0.406544 0.000000
0.115808 0.487947 0.000000
0.108271 0.591540 0.000000
0.122408 0.738222 0.000000
0.127396 0.901630 0.000000
0.312046 0.979328 0.000000
1.000000 0.990896 0.000000
0.000000 0.098895 0.000000
0.040799 0.091818 0.000000
0.077643 0.100453 0.000000
0.098370 0.127396 0.000000
0.109082 0.153097 0.000000
0.112473 0.172540 0.000000
0.114915 0.190064 0.000000
0.118209 0.207461 0.000000
0.121996 0.225300 0.000000
0.123247 0.241726 0.000000
0.112547 0.259185 0.000000
0.101783 0.289146 0.000000
0.097516 0.330268 0.000000
0.089442 0.398564 0.000000
0.088777 0.481211 0.000000
0.085753 0.590697 0.000000
0.088859 0.726204 0.000000
0.122118 0.793854 0.000000
0.100453 0.922357 0.000000
0.353013 0.987564 0.000000
1.000000 0.993178 0.000000
0.000000 0.472122 0.000000
0.005070 0.415025 0.000000
0.012436 0.353013 0.000000
0.020672 0.312046 0.000000
0.027777 0.297688 0.000000
0.033825 0.302140 0.000000
0.038881 0.320456 0.000000
0.043720 0.340758 0.000000
0.048289 0.367758 0.000000
0.051817 0.405259 0.000000
0.054683 0.452847 0.000000
0.057048 0.504864 0.000000
0.059140 0.558538 0.000000
0.060306 0.629707 0.000000
0.062165 0.702752 0.000000
0.067838 0.761936 0.000000
0.077277 0.819337 0.000000
0.094544 0.853024 0.000000
0.091818 0.959201 0.000000
0.415025 0.994930 0.000000
1.000000 0.997448 0.000000
0.000000 1.000000 0.000000
0.002552 1.000000 0.000000
0.006822 1.000000 0.000000
0.009104 1.000000 0.000000
0.010269 1.000000 0.000000
0.010818 1.000000 0.000000
0.011578 1.000000 0.000000
0.012642 1.000000 0.000000
0.014047 1.000000 0.000000
0.016091 1.000000 0.000000
0.019009 1.000000 0.000000
0.022885 1.000000 0.000000
0.027284 1.000000 0.000000
0.032555 1.000000 0.000000
0.039448 1.000000 0.000000
0.047121 1.000000 0.000000
0.056306 1.000000 0.000000
0.065843 1.000000 0.000000
0.098895 1.000000 0.000000
0.472122 1.000000 0.000000
1.000000 1.000000 0.000000
0.000000 0.000000 0.082500
0.527878 0.000000 0.082500
0.901105 0.000000 0.082500
0.934157 0.000000 0.082500
0.943694 0.000000 0.082500
0.952879 0.000000 0.082500
0.960552 0.000000 0.082500
0.967445 0.000000 0.082500
0.972716 0.000000 0.082500
0.977115 0.000000 0.082500
0.980991 0.000000 0.082500
0.983909 0.000000 0.082500
0.985953 0.000000 0.082500
0.987358 0.000000 0.082500
0.988422 0.000000 0.082500
0.989182 0.000000 0.082500
0.989731 0.000000 0.082500
0.990896 0.000000 0.082500
0.993178 0.000000 0.082500
0.997448 0.000000 0.082500
1.000000 0.000000 0.082500
0.000000 0.002552 0.082500
0.584975 0.005070 0.082500
0.908182 0.040799 0.082500
0.905456 0.146976 0.082500
0.922723 0.180663 0.082500
0.932162 0.238064 0.082500
0.937835 0.297248 0.082500
0.939694 0.370293 0.082500
0.940860 0.441462 0.082500
0.942952 0.495136 0.082500
0.945317 0.547153 0.082500
0.948183 0.594741 0.082500
0.951711 0.632242 0.082500
0.956280 0.659242 0.082500
0.961119 0.679544 0.082500
0.966175 0.697860 0.082500
0.972223 0.702312 0.082500
0.979328 0.687954 0.082500
0.987564 0.646987 0.082500
0.994930 0.584975 0.082500
1.000000 0.527878 0.082500
0.000000 0.006822 0.082500
0.646987 0.012436 0.082500
0.899547 0.077643 0.082500
0.877882 0.206146 0.082500
0.911141 0.273796 0.082500
0.914247 0.409303 0.082500
0.911223 0.518789 0.082500
0.910558 0.601436 0.082500
0.902484 0.669732 0.082500
0.898217 0.710854 0.082500
0.887453 0.740815 0.082500
0.876753 0.758274 0.082500
0.878004 0.774700 0.082500
0.881791 0.792539 0.082500
0.885085 0.809936 0.082500
0.887527 0.827460 0.082500
0.890918 0.846903 0.082500
0.901630 0.872604 0.082500
0.922357 0.899547 0.082500
0.959201 0.908182 0.082500
1.000000 0.901105 0.082500
0.000000 0.009104 0.082500
0.687954 0.020672 0.082500
0.872604 0.098370 0.082500
0.877592 0.261778 0.082500
0.891729 0.408460 0.082500
0.884192 0.512053 0.082500
0.877459 0.593456 0.082500
0.854955 0.654665 0.082500
0.823164 0.697710 0.082500
0.794240 0.730396 0.082500
0.750131 0.764118 0.082500
0.710597 0.798503 0.082500
0.699028 0.819932 0.082500
0.696340 0.835606 0.082500
0.698175 0.848876 0.082500
0.703358 0.861618 0.082500
0.712665 0.872189 0.082500
0.738222 0.877592 0.082500
0.793854 0.877882 0.082500
0.853024 0.905456 0.082500
1.000000 0.934157 0.082500
0.000000 0.010269 0.082500
0.702312 0.027777 0.082500
0.846903 0.109082 0.082500
0.872189 0.287335 0.082500
0.854106 0.455646 0.082500
0.854052 0.530828 0.082500
0.835280 0.622710 0.082500
0.774904 0.685280 0.082500
0.725607 0.722514 0.082500
0.683053 0.750280 0.082500
0.648453 0.768982 0.082500
0.622813 0.776623 0.082500
0.594319 0.782586 0.082500
0.570211 0.793611 0.082500
0.553191 0.809707 0.082500
0.542524 0.828405 0.082500
0.544354 0.854106 0.082500
0.591540 0.891729 0.082500
0.726204 0.911141 0.082500
0.819337 0.922723 0.082500
1.000000 0.943694 0.082500
0.000000 0.010818 0.082500
0.697860 0.033825 0.082500
0.827460 0.112473 0.082500
0.861618 0.296642 0.082500
0.828405 0.457476 0.082500
0.823739 0.551405 0.082500
0.797123 0.632366 0.082500
0.726438 0.673616 0.082500
0.674913 0.703566 0.082500
0.625289 0.724661 0.082500
0.568089 0.732072 0.082500
0.515402 0.740888 0.082500
0.469692 0.753011 0.082500
0.447051 0.773263 0.082500
0.436273 0.795255 0.082500
0.448595 0.823739 0.082500
0.469172 0.854052 0.082500
0.487947 0.884192 0.082500
0.590697 0.914247 0.082500
0.761936 0.932162 0.082500
1.000000 0.952879 0.082500
0.000000 0.011578 0.082500
0.679544 0.038881 0.082500
0.809936 0.114915 0.082500
0.848876 0.301825 0.082500
0.809707 0.446809 0.082500
0.795255 0.563727 0.082500
0.749694 0.628772 0.082500
0.683236 0.653486 0.082500
0.624987 0.680741 0.082500
0.569279 0.691584 0.082500
0.516224 0.693074 0.082500
0.472918 0.701686 0.082500
0.434110 0.704603 0.082500
0.399174 0.722870 0.082500
0.371228 0.749694 0.082500
0.367634 0.797123 0.082500
0.377290 0.835280 0.082500
0.406544 0.877459 0.082500
0.481211 0.911223 0.082500
0.702752 0.937835 0.082500
1.000000 0.960552 0.082500
0.000000 0.012642 0.082500
0.659242 0.043720 0.082500
0.792539 0.118209 0.082500
0.835606 0.303660 0.082500
0.793611 0.429789 0.082500
0.773263 0.552949 0.082500
0.722870 0.600826 0.082500
0.658223 0.626530 0.082500
0.597751 0.645076 0.082500
0.544537 0.648054 0.082500
0.492164 0.645435 0.082500
0.446163 0.641878 0.082500
0.405700 0.642455 0.082500
0.373470 0.658223 0.082500
0.346514 0.683236 0.082500
0.326384 0.726438 0.082500
0.314720 0.774904 0.082500
0.345335 0.854955 0.082500
0.398564 0.910558 0.082500
0.629707 0.939694 0.082500
1.000000 0.967445 0.082500
0.000000 0.014047 0.082500
0.632242 0.048289 0.082500
0.774700 0.121996 0.082500
0.819932 0.300972 0.082500
0.782586 0.405681 0.082500
0.753011 0.530308 0.082500
0.704603 0.565890 0.082500
0.642455 0.594300 0.082500
0.583033 0.599858 0.082500
0.531771 0.601975 0.082500
0.485530 0.594980 0.082500
0.442459 0.588324 0.082500
0.400142 0.583033 0.082500
0.354924 0.597751 0.082500
0.319259 0.624987 0.082500
0.296434 0.674913 0.082500
0.277486 0.725607 0.082500
0.302290 0.823164 0.082500
0.330268 0.902484 0.082500
0.558538 0.940860 0.082500
1.000000 0.972716 0.082500
0.000000 0.016091 0.082500
0.594741 0.051817 0.082500
0.758274 0.123247 0.082500
0.798503 0.289403 0.082500
0.776623 0.377187 0.082500
0.740888 0.484598 0.082500
0.701686 0.527082 0.082500
0.641878 0.553837 0.082500
0.588324 0.557541 0.082500
0.536886 0.556488 0.082500
0.489198 0.546097 0.082500
0.443512 0.536886 0.082500
0.398025 0.531771 0.082500
0.351946 0.544537 0.082500
0.308416 0.569279 0.082500
0.275339 0.625289 0.082500
0.249720 0.683053 0.082500
0.269604 0.794240 0.082500
0.289146 0.898217 0.082500
0.504864 0.942952 0.082500
1.000000 0.977115 0.082500
0.000000 0.019009 0.082500
0.547153 0.054683 0.082500
0.740815 0.112547 0.082500
0.764118 0.249869 0.082500
0.768982 0.351547 0.082500
0.732072 0.431911 0.082500
0.693074 0.483776 0.082500
0.645435 0.507836 0.082500
0.594980 0.514470 0.082500
0.546097 0.510802 0.082500
0.500000 0.500000 0.082500
0.453903 0.489198 0.082500
0.405020 0.485530 0.082500
0.354565 0.492164 0.082500
0.306926 0.516224 0.082500
0.267928 0.568089 0.082500
0.231018 0.648453 0.082500
0.235882 0.750131 0.082500
0.259185 0.887453 0.082500
0.452847 0.945317 0.082500
1.000000 0.980991 0.082500
0.000000 0.022885 0.082500
0.495136 0.057048 0.082500
0.710854 0.101783 0.082500
0.730396 0.205760 0.082500
0.750280 0.316947 0.082500
0.724661 0.374711 0.082500
0.691584 0.430721 0.082500
0.648054 0.455463 0.082500
0.601975 0.468229 0.082500
0.556488 0.463114 0.082500
0.510802 0.453903 0.082500
0.463114 0.443512 0.082500
0.411676 0.442459 0.082500
0.358122 0.446163 0.082500
0.298314 0.472918 0.082500
0.259112 0.515402 0.082500
0.223377 0.622813 0.082500
0.201497 0.710597 0.082500
0.241726 0.876753 0.082500
0.405259 0.948183 0.082500
1.000000 0.983909 0.082500
0.000000 0.027284 0.082500
0.441462 0.059140 0.082500
0.669732 0.097516 0.082500
0.697710 0.176836 0.082500
0.722514 0.274393 0.082500
0.703566 0.325087 0.082500
0.680741 0.375013 0.082500
0.645076 0.402249 0.082500
0.599858 0.416967 0.082500
0.557541 0.411676 0.082500
0.514470 0.405020 0.082500
0.468229 0.398025 0.082500
0.416967 0.400142 0.082500
0.357545 0.405700 0.082500
0.295397 0.434110 0.082500
0.246989 0.469692 0.082500
0.217414 0.594319 0.082500
0.180068 0.699028 0.082500
0.225300 0.878004 0.082500
0.367758 0.951711 0.082500
1.000000 0.985953 0.082500
0.000000 0.032555 0.082500
0.370293 0.060306 0.082500
0.601436 0.089442 0.082500
0.654665 0.145045 0.082500
0.685280 0.225096 0.082500
0.673616 0.273562 0.082500
0.653486 0.316764 0.082500
0.626530 0.341777 0.082500
0.594300 0.357545 0.082500
0.553837 0.358122 0.082500
0.507836 0.354565 0.082500
0.455463 0.351946 0.082500
0.402249 0.354924 0.082500
0.341777 0.373470 0.082500
0.277130 0.399174 0.082500
0.226737 0.447051 0.082500
0.206389 0.570211 0.082500
0.164394 0.696340 0.082500
0.207461 0.881791 0.082500
0.340758 0.956280 0.082500
1.000000 0.987358 0.082500
0.000000 0.039448 0.082500
0.297248 0.062165 0.082500
0.518789 0.088777 0.082500
0.593456 0.122541 0.082500