# vtk DataFile Version 2.0
Mesh for Fierro
ASCII 
DATASET UNSTRUCTURED_GRID

POINTS 2205 float
0.000000 0.000000 0.000000
0.299276 0.000000 0.000000
0.508433 0.000000 0.000000
0.633930 0.000000 0.000000
0.714520 0.000000 0.000000
0.770528 0.000000 0.000000
0.813151 0.000000 0.000000
0.843789 0.000000 0.000000
0.868029 0.000000 0.000000
0.887331 0.000000 0.000000
0.904164 0.000000 0.000000
0.918141 0.000000 0.000000
0.930581 0.000000 0.000000
0.941673 0.000000 0.000000
0.951160 0.000000 0.000000
0.960287 0.000000 0.000000
0.968863 0.000000 0.000000
0.977148 0.000000 0.000000
0.985043 0.000000 0.000000
0.992684 0.000000 0.000000
1.000000 0.000000 0.000000
0.000000 0.007316 0.000000
0.297048 0.009352 0.000000
0.505301 0.015279 0.000000
0.630756 0.025042 0.000000
0.710435 0.038187 0.000000
0.765397 0.053211 0.000000
0.807099 0.070875 0.000000
0.837035 0.091430 0.000000
0.860240 0.113619 0.000000
0.879212 0.136179 0.000000
0.895400 0.158060 0.000000
0.909156 0.180568 0.000000
0.921158 0.203611 0.000000
0.932217 0.224548 0.000000
0.942495 0.242657 0.000000
0.952454 0.258825 0.000000
0.962111 0.271672 0.000000
0.971693 0.282424 0.000000
0.981148 0.290991 0.000000
0.990648 0.297048 0.000000
1.000000 0.299276 0.000000
0.000000 0.014957 0.000000
0.290991 0.018852 0.000000
0.497462 0.030070 0.000000
0.622847 0.049034 0.000000
0.702036 0.074297 0.000000
0.757938 0.103543 0.000000
0.797865 0.139228 0.000000
0.825444 0.177208 0.000000
0.846417 0.217667 0.000000
0.862886 0.256720 0.000000
0.876715 0.294859 0.000000
0.888697 0.332341 0.000000
0.898811 0.368911 0.000000
0.908890 0.400936 0.000000
0.919314 0.428306 0.000000
0.930704 0.451916 0.000000
0.942956 0.470562 0.000000
0.956066 0.485998 0.000000
0.969930 0.497462 0.000000
0.984721 0.505301 0.000000
1.000000 0.508433 0.000000
0.000000 0.022852 0.000000
0.282424 0.028307 0.000000
0.485998 0.043934 0.000000
0.610047 0.071108 0.000000
0.687486 0.106098 0.000000
0.740795 0.145829 0.000000
0.776309 0.193829 0.000000
0.800740 0.242647 0.000000
0.817135 0.294946 0.000000
0.830344 0.342391 0.000000
0.840295 0.389319 0.000000
0.849006 0.433445 0.000000
0.856625 0.475469 0.000000
0.865973 0.512146 0.000000
0.877461 0.543683 0.000000
0.891869 0.570688 0.000000
0.908813 0.592705 0.000000
0.928892 0.610047 0.000000
0.950966 0.622847 0.000000
0.974958 0.630756 0.000000
1.000000 0.633930 0.000000
0.000000 0.031137 0.000000
0.271672 0.037889 0.000000
0.470562 0.057044 0.000000
0.592705 0.091187 0.000000
0.669756 0.134521 0.000000
0.720774 0.184546 0.000000
0.751023 0.243129 0.000000
0.771842 0.299396 0.000000
0.782278 0.359874 0.000000
0.791889 0.411691 0.000000
0.796786 0.463401 0.000000
0.801615 0.509721 0.000000
0.805880 0.552377 0.000000
0.814681 0.588576 0.000000
0.826884 0.620126 0.000000
0.843973 0.647060 0.000000
0.865479 0.669756 0.000000
0.893902 0.687486 0.000000
0.925703 0.702036 0.000000
0.961813 0.710435 0.000000
1.000000 0.714520 0.000000
0.000000 0.039713 0.000000
0.258825 0.047546 0.000000
0.451916 0.069296 0.000000
0.570688 0.108131 0.000000
0.647060 0.156027 0.000000
0.694414 0.210932 0.000000
0.719709 0.272178 0.000000
0.737092 0.331411 0.000000
0.742790 0.392110 0.000000
0.748702 0.445385 0.000000
0.748813 0.497083 0.000000
0.749121 0.544380 0.000000
0.749398 0.588277 0.000000
0.756220 0.628146 0.000000
0.769052 0.663391 0.000000
0.789068 0.694414 0.000000
0.815454 0.720774 0.000000
0.854171 0.740795 0.000000
0.896457 0.757938 0.000000
0.946789 0.765397 0.000000
1.000000 0.770528 0.000000
0.000000 0.048840 0.000000
0.242657 0.057505 0.000000
0.428306 0.080686 0.000000
0.543683 0.122539 0.000000
0.620126 0.173116 0.000000
0.663391 0.230948 0.000000
0.685357 0.293038 0.000000
0.698972 0.353549 0.000000
0.700752 0.413591 0.000000
0.702452 0.466997 0.000000
0.697856 0.517542 0.000000
0.694146 0.564017 0.000000
0.690766 0.607173 0.000000
0.695451 0.647784 0.000000
0.706962 0.685357 0.000000
0.727822 0.719709 0.000000
0.756871 0.751023 0.000000
0.806171 0.776309 0.000000
0.860772 0.797865 0.000000
0.929125 0.807099 0.000000
1.000000 0.813151 0.000000
0.000000 0.058327 0.000000
0.224548 0.067783 0.000000
0.400936 0.091110 0.000000
0.512146 0.134027 0.000000
0.588576 0.185319 0.000000
0.628146 0.243780 0.000000
0.647784 0.304549 0.000000
0.657969 0.364586 0.000000
0.657020 0.422718 0.000000
0.654569 0.475377 0.000000
0.646167 0.524475 0.000000
0.638887 0.570683 0.000000
0.632462 0.614498 0.000000
0.635414 0.657969 0.000000
0.646451 0.698972 0.000000
0.668589 0.737092 0.000000
0.700604 0.771842 0.000000
0.757353 0.800740 0.000000
0.822792 0.825444 0.000000
0.908570 0.837035 0.000000
1.000000 0.843789 0.000000
0.000000 0.069419 0.000000
0.203611 0.078842 0.000000
0.368911 0.101189 0.000000
0.475469 0.143375 0.000000
0.552377 0.194120 0.000000
0.588277 0.250602 0.000000
0.607173 0.309234 0.000000
0.614498 0.367538 0.000000
0.611815 0.423968 0.000000
0.605524 0.475243 0.000000
0.594111 0.522731 0.000000
0.584343 0.568185 0.000000
0.576032 0.611815 0.000000
0.577282 0.657020 0.000000
0.586409 0.700752 0.000000
0.607890 0.742790 0.000000
0.640126 0.782278 0.000000
0.705054 0.817135 0.000000
0.782333 0.846417 0.000000
0.886381 0.860240 0.000000
1.000000 0.868029 0.000000
0.000000 0.081859 0.000000
0.180568 0.090844 0.000000
0.332341 0.111303 0.000000
0.433445 0.150994 0.000000
0.509721 0.198385 0.000000
0.544380 0.250879 0.000000
0.564017 0.305854 0.000000
0.570683 0.361113 0.000000
0.568185 0.415657 0.000000
0.559470 0.465513 0.000000
0.546543 0.512884 0.000000
0.534487 0.559470 0.000000
0.524757 0.605524 0.000000
0.524623 0.654569 0.000000
0.533003 0.702452 0.000000
0.554615 0.748702 0.000000
0.588309 0.791889 0.000000
0.657609 0.830344 0.000000
0.743280 0.862886 0.000000
0.863821 0.879212 0.000000
1.000000 0.887331 0.000000
0.000000 0.095836 0.000000
0.158060 0.104600 0.000000
0.294859 0.123285 0.000000
0.389319 0.159705 0.000000
0.463401 0.203214 0.000000
0.497083 0.251187 0.000000
0.517542 0.302144 0.000000
0.524475 0.353833 0.000000
0.522731 0.405889 0.000000
0.512884 0.453457 0.000000
0.500000 0.500000 0.000000
0.487116 0.546543 0.000000
0.477269 0.594111 0.000000
0.475525 0.646167 0.000000
0.482458 0.697856 0.000000
0.502917 0.748813 0.000000
0.536599 0.796786 0.000000
0.610681 0.840295 0.000000
0.705141 0.876715 0.000000
0.841940 0.895400 0.000000
1.000000 0.904164 0.000000
0.000000 0.112669 0.000000
0.136179 0.120788 0.000000
0.256720 0.137114 0.000000
0.342391 0.169656 0.000000
0.411691 0.208111 0.000000
0.445385 0.251298 0.000000
0.466997 0.297548 0.000000
0.475377 0.345431 0.000000
0.475243 0.394476 0.000000
0.465513 0.440530 0.000000
0.453457 0.487116 0.000000
0.440530 0.534487 0.000000
0.431815 0.584343 0.000000
0.429317 0.638887 0.000000
0.435983 0.694146 0.000000
0.455620 0.749121 0.000000
0.490279 0.801615 0.000000
0.566555 0.849006 0.000000
0.667659 0.888697 0.000000
0.819432 0.909156 0.000000
1.000000 0.918141 0.000000
0.000000 0.131971 0.000000
0.113619 0.139760 0.000000
0.217667 0.153583 0.000000
0.294946 0.182865 0.000000
0.359874 0.217722 0.000000
0.392110 0.257210 0.000000
0.413591 0.299248 0.000000
0.422718 0.342980 0.000000
0.423968 0.388185 0.000000
0.415657 0.431815 0.000000
0.405889 0.477269 0.000000
0.394476 0.524757 0.000000
0.388185 0.576032 0.000000
0.385502 0.632462 0.000000
0.392827 0.690766 0.000000
0.411723 0.749398 0.000000
0.447623 0.805880 0.000000
0.524531 0.856625 0.000000
0.631089 0.898811 0.000000
0.796389 0.921158 0.000000
1.000000 0.930581 0.000000
0.000000 0.156211 0.000000
0.091430 0.162965 0.000000
0.177208 0.174556 0.000000
0.242647 0.199260 0.000000
0.299396 0.228158 0.000000
0.331411 0.262908 0.000000
0.353549 0.301028 0.000000
0.364586 0.342031 0.000000
0.367538 0.385502 0.000000
0.361113 0.429317 0.000000
0.353833 0.475525 0.000000
0.345431 0.524623 0.000000
0.342980 0.577282 0.000000
0.342031 0.635414 0.000000
0.352216 0.695451 0.000000
0.371854 0.756220 0.000000
0.411424 0.814681 0.000000
0.487854 0.865973 0.000000
0.599064 0.908890 0.000000
0.775452 0.932217 0.000000
1.000000 0.941673 0.000000
0.000000 0.186849 0.000000
0.070875 0.192901 0.000000
0.139228 0.202135 0.000000
0.193829 0.223691 0.000000
0.243129 0.248977 0.000000
0.272178 0.280291 0.000000
0.293038 0.314643 0.000000
0.304549 0.352216 0.000000
0.309234 0.392827 0.000000
0.305854 0.435983 0.000000
0.302144 0.482458 0.000000
0.297548 0.533003 0.000000
0.299248 0.586409 0.000000
0.301028 0.646451 0.000000
0.314643 0.706962 0.000000
0.336609 0.769052 0.000000
0.379874 0.826884 0.000000
0.456317 0.877461 0.000000
0.571694 0.919314 0.000000
0.757343 0.942495 0.000000
1.000000 0.951160 0.000000
0.000000 0.229472 0.000000
0.053211 0.234603 0.000000
0.103543 0.242062 0.000000
0.145829 0.259205 0.000000
0.184546 0.279226 0.000000
0.210932 0.305586 0.000000
0.230948 0.336609 0.000000
0.243780 0.371854 0.000000
0.250602 0.411723 0.000000
0.250879 0.455620 0.000000
0.251187 0.502917 0.000000
0.251298 0.554615 0.000000
0.257210 0.607890 0.000000
0.262908 0.668589 0.000000
0.280291 0.727822 0.000000
0.305586 0.789068 0.000000
0.352940 0.843973 0.000000
0.429312 0.891869 0.000000
0.548084 0.930704 0.000000
0.741175 0.952454 0.000000
1.000000 0.960287 0.000000
0.000000 0.285480 0.000000
0.038187 0.289565 0.000000
0.074297 0.297964 0.000000
0.106098 0.312514 0.000000
0.134521 0.330244 0.000000
0.156027 0.352940 0.000000
0.173116 0.379874 0.000000
0.185319 0.411424 0.000000
0.194120 0.447623 0.000000
0.198385 0.490279 0.000000
0.203214 0.536599 0.000000
0.208111 0.588309 0.000000
0.217722 0.640126 0.000000
0.228158 0.700604 0.000000
0.248977 0.756871 0.000000
0.279226 0.815454 0.000000
0.330244 0.865479 0.000000
0.407295 0.908813 0.000000
0.529438 0.942956 0.000000
0.728328 0.962111 0.000000
1.000000 0.968863 0.000000
0.000000 0.366070 0.000000
0.025042 0.369244 0.000000
0.049034 0.377153 0.000000
0.071108 0.389953 0.000000
0.091187 0.407295 0.000000
0.108131 0.429312 0.000000
0.122539 0.456317 0.000000
0.134027 0.487854 0.000000
0.143375 0.524531 0.000000
[...]
POINT_DATA 2205 
VECTORS pos float 
0.000000 0.000000 0.000000
0.299276 0.000000 0.000000
0.508433 0.000000 0.000000
0.633930 0.000000 0.000000
0.714520 0.000000 0.000000
0.770528 0.000000 0.000000
0.813151 0.000000 0.000000
0.843789 0.000000 0.000000
0.868029 0.000000 0.000000
0.887331 0.000000 0.000000
0.904164 0.000000 0.000000
0.918141 0.000000 0.000000
0.930581 0.000000 0.000000
0.941673 0.000000 0.000000
0.951160 0.000000 0.000000
0.960287 0.000000 0.000000
0.968863 0.000000 0.000000
0.977148 0.000000 0.000000
0.985043 0.000000 0.000000
0.992684 0.000000 0.000000
1.000000 0.000000 0.000000
0.000000 0.007316 0.000000
0.297048 0.009352 0.000000
0.505301 0.015279 0.000000
0.630756 0.025042 0.000000
0.710435 0.038187 0.000000
0.765397 0.053211 0.000000
0.807099 0.070875 0.000000
0.837035 0.091430 0.000000
0.860240 0.113619 0.000000
0.879212 0.136179 0.000000
0.895400 0.158060 0.000000
0.909156 0.180568 0.000000
0.921158 0.203611 0.000000
0.932217 0.224548 0.000000
0.942495 0.242657 0.000000
0.952454 0.258825 0.000000
0.962111 0.271672 0.000000
0.971693 0.282424 0.000000
0.981148 0.290991 0.000000
0.990648 0.297048 0.000000
1.000000 0.299276 0.000000
0.000000 0.014957 0.000000
0.290991 0.018852 0.000000
0.497462 0.030070 0.000000
0.622847 0.049034 0.000000
0.702036 0.074297 0.000000
0.757938 0.103543 0.000000
0.797865 0.139228 0.000000
0.825444 0.177208 0.000000
0.846417 0.217667 0.000000
0.862886 0.256720 0.000000
0.876715 0.294859 0.000000
0.888697 0.332341 0.000000
0.898811 0.368911 0.000000
0.908890 0.400936 0.000000
0.919314 0.428306 0.000000
0.930704 0.451916 0.000000
0.942956 0.470562 0.000000
0.956066 0.485998 0.000000
0.969930 0.497462 0.000000
0.984721 0.505301 0.000000
1.000000 0.508433 0.000000
0.000000 0.022852 0.000000
0.282424 0.028307 0.000000
0.485998 0.043934 0.000000
0.610047 0.071108 0.000000
0.687486 0.106098 0.000000
0.740795 0.145829 0.000000
0.776309 0.193829 0.000000
0.800740 0.242647 0.000000
0.817135 0.294946 0.000000
0.830344 0.342391 0.000000
0.840295 0.389319 0.000000
0.849006 0.433445 0.000000
0.856625 0.475469 0.000000
0.865973 0.512146 0.000000
0.877461 0.543683 0.000000
0.891869 0.570688 0.000000
0.908813 0.592705 0.000000
0.928892 0.610047 0.000000
0.950966 0.622847 0.000000
0.974958 0.630756 0.000000
1.000000 0.633930 0.000000
0.000000 0.031137 0.000000
0.271672 0.037889 0.000000
0.470562 0.057044 0.000000
0.592705 0.091187 0.000000
0.669756 0.134521 0.000000
0.720774 0.184546 0.000000
0.751023 0.243129 0.000000
0.771842 0.299396 0.000000
0.782278 0.359874 0.000000
0.791889 0.411691 0.000000
0.796786 0.463401 0.000000
0.801615 0.509721 0.000000
0.805880 0.552377 0.000000
0.814681 0.588576 0.000000
0.826884 0.620126 0.000000
0.843973 0.647060 0.000000
0.865479 0.669756 0.000000
0.893902 0.687486 0.000000
0.925703 0.702036 0.000000
0.961813 0.710435 0.000000
1.000000 0.714520 0.000000
0.000000 0.039713 0.000000
0.258825 0.047546 0.000000
0.451916 0.069296 0.000000
0.570688 0.108131 0.000000
0.647060 0.156027 0.000000
0.694414 0.210932 0.000000
0.719709 0.272178 0.000000
0.737092 0.331411 0.000000
0.742790 0.392110 0.000000
0.748702 0.445385 0.000000
0.748813 0.497083 0.000000
0.749121 0.544380 0.000000
0.749398 0.588277 0.000000
0.756220 0.628146 0.000000
0.769052 0.663391 0.000000
0.789068 0.694414 0.000000
0.815454 0.720774 0.000000
0.854171 0.740795 0.000000
0.896457 0.757938 0.000000
0.946789 0.765397 0.000000
1.000000 0.770528 0.000000
0.000000 0.048840 0.000000
0.242657 0.057505 0.000000
0.428306 0.080686 0.000000
0.543683 0.122539 0.000000
0.620126 0.173116 0.000000
0.663391 0.230948 0.000000
0.685357 0.293038 0.000000
0.698972 0.353549 0.000000
0.700752 0.413591 0.000000
0.702452 0.466997 0.000000
0.697856 0.517542 0.000000
0.694146 0.564017 0.000000
0.690766 0.607173 0.000000
0.695451 0.647784 0.000000
0.706962 0.685357 0.000000
0.727822 0.719709 0.000000
0.756871 0.751023 0.000000
0.806171 0.776309 0.000000
0.860772 0.797865 0.000000
0.929125 0.807099 0.000000
1.000000 0.813151 0.000000
0.000000 0.058327 0.000000
0.224548 0.067783 0.000000
0.400936 0.091110 0.000000
0.512146 0.134027 0.000000
0.588576 0.185319 0.000000
0.628146 0.243780 0.000000
0.647784 0.304549 0.000000
0.657969 0.364586 0.000000
0.657020 0.422718 0.000000
0.654569 0.475377 0.000000
0.646167 0.524475 0.000000
0.638887 0.570683 0.000000
0.632462 0.614498 0.000000
0.635414 0.657969 0.000000
0.646451 0.698972 0.000000
0.668589 0.737092 0.000000
0.700604 0.771842 0.000000
0.757353 0.800740 0.000000
0.822792 0.825444 0.000000
0.908570 0.837035 0.000000
1.000000 0.843789 0.000000
0.000000 0.069419 0.000000
0.203611 0.078842 0.000000
0.368911 0.101189 0.000000
0.475469 0.143375 0.000000
0.552377 0.194120 0.000000
0.588277 0.250602 0.000000
0.607173 0.309234 0.000000
0.614498 0.367538 0.000000
0.611815 0.423968 0.000000
0.605524 0.475243 0.000000
0.594111 0.522731 0.000000
0.584343 0.568185 0.000000
0.576032 0.611815 0.000000
0.577282 0.657020 0.000000
0.586409 0.700752 0.000000
0.607890 0.742790 0.000000
0.640126 0.782278 0.000000
0.705054 0.817135 0.000000
0.782333 0.846417 0.000000
0.886381 0.860240 0.000000
1.000000 0.868029 0.000000
0.000000 0.081859 0.000000
0.180568 0.090844 0.000000
0.332341 0.111303 0.000000
0.433445 0.150994 0.000000
0.509721 0.198385 0.000000
0.544380 0.250879 0.000000
0.564017 0.305854 0.000000
0.570683 0.361113 0.000000
0.568185 0.415657 0.000000
0.559470 0.465513 0.000000
0.546543 0.512884 0.000000
0.534487 0.559470 0.000000
0.524757 0.605524 0.000000
0.524623 0.654569 0.000000
0.533003 0.702452 0.000000
0.554615 0.748702 0.000000
0.588309 0.791889 0.000000
0.657609 0.830344 0.000000
0.743280 0.862886 0.000000
0.863821 0.879212 0.000000
1.000000 0.887331 0.000000
0.000000 0.095836 0.000000
0.158060 0.104600 0.000000
0.294859 0.123285 0.000000
0.389319 0.159705 0.000000
0.463401 0.203214 0.000000
0.497083 0.251187 0.000000
0.517542 0.302144 0.000000
0.524475 0.353833 0.000000
0.522731 0.405889 0.000000
0.512884 0.453457 0.000000
0.500000 0.500000 0.000000
0.487116 0.546543 0.000000
0.477269 0.594111 0.000000
0.475525 0.646167 0.000000
0.482458 0.697856 0.000000
0.502917 0.748813 0.000000
0.536599 0.796786 0.000000
0.610681 0.840295 0.000000
0.705141 0.876715 0.000000
0.841940 0.895400 0.000000
1.000000 0.904164 0.000000
0.000000 0.112669 0.000000
0.136179 0.120788 0.000000
0.256720 0.137114 0.000000
0.342391 0.169656 0.000000
0.411691 0.208111 0.000000
0.445385 0.251298 0.000000
0.466997 0.297548 0.000000
0.475377 0.345431 0.000000
0.475243 0.394476 0.000000
0.465513 0.440530 0.000000
0.453457 0.487116 0.000000
0.440530 0.534487 0.000000
0.431815 0.584343 0.000000
0.429317 0.638887 0.000000
0.435983 0.694146 0.000000
0.455620 0.749121 0.000000
0.490279 0.801615 0.000000
0.566555 0.849006 0.000000
0.667659 0.888697 0.000000
0.819432 0.909156 0.000000
1.000000 0.918141 0.000000
0.000000 0.131971 0.000000
0.113619 0.139760 0.000000
0.217667 0.153583 0.000000
0.294946 0.182865 0.000000
0.359874 0.217722 0.000000
0.392110 0.257210 0.000000
0.413591 0.299248 0.000000
0.422718 0.342980 0.000000
0.423968 0.388185 0.000000
0.415657 0.431815 0.000000
0.405889 0.477269 0.000000
0.394476 0.524757 0.000000
0.388185 0.576032 0.000000
0.385502 0.632462 0.000000
0.392827 0.690766 0.000000
0.411723 0.749398 0.000000
0.447623 0.805880 0.000000
0.524531 0.856625 0.000000
0.631089 0.898811 0.000000
0.796389 0.921158 0.000000
1.000000 0.930581 0.000000
0.000000 0.156211 0.000000
0.091430 0.162965 0.000000
0.177208 0.174556 0.000000
0.242647 0.199260 0.000000
0.299396 0.228158 0.000000
0.331411 0.262908 0.000000
0.353549 0.301028 0.000000
0.364586 0.342031 0.000000
0.367538 0.385502 0.000000
0.361113 0.429317 0.000000
0.353833 0.475525 0.000000
0.345431 0.524623 0.000000
0.342980 0.577282 0.000000
0.342031 0.635414 0.000000
0.352216 0.695451 0.000000
0.371854 0.756220 0.000000
0.411424 0.814681 0.000000
0.487854 0.865973 0.000000
0.599064 0.908890 0.000000
0.775452 0.932217 0.000000
1.000000 0.941673 0.000000
0.000000 0.186849 0.000000
0.070875 0.192901 0.000000
0.139228 0.202135 0.000000
0.193829 0.223691 0.000000
0.243129 0.248977 0.000000
0.272178 0.280291 0.000000
0.293038 0.314643 0.000000
0.304549 0.352216 0.000000
0.309234 0.392827 0.000000
0.305854 0.435983 0.000000
0.302144 0.482458 0.000000
0.297548 0.533003 0.000000
0.299248 0.586409 0.000000
0.301028 0.646451 0.000000
0.314643 0.706962 0.000000
0.336609 0.769052 0.000000
0.379874 0.826884 0.000000
0.456317 0.877461 0.000000
0.571694 0.919314 0.000000
0.757343 0.942495 0.000000
1.000000 0.951160 0.000000
0.000000 0.229472 0.000000
0.053211 0.234603 0.000000
0.103543 0.242062 0.000000
0.145829 0.259205 0.000000
0.184546 0.279226 0.000000
0.210932 0.305586 0.000000
0.230948 0.336609 0.000000
0.243780 0.371854 0.000000
0.250602 0.411723 0.000000
0.250879 0.455620 0.000000
0.251187 0.502917 0.000000
0.251298 0.554615 0.000000
0.257210 0.607890 0.000000
0.262908 0.668589 0.000000
0.280291 0.727822 0.000000
0.305586 0.789068 0.000000
0.352940 0.843973 0.000000
0.429312 0.891869 0.000000
0.548084 0.930704 0.000000
0.741175 0.952454 0.000000
1.000000 0.960287 0.000000
0.000000 0.285480 0.000000
0.038187 0.289565 0.000000
0.074297 0.297964 0.000000
0.106098 0.312514 0.000000
0.134521 0.330244 0.000000
0.156027 0.352940 0.000000
0.173116 0.379874 0.000000
0.185319 0.411424 0.000000
0.194120 0.447623 0.000000
0.198385 0.490279 0.000000
0.203214 0.536599 0.000000
0.208111 0.588309 0.000000
0.217722 0.640126 0.000000
0.228158 0.700604 0.000000
0.248977 0.756871 0.000000
0.279226 0.815454 0.000000
0.330244 0.865479 0.000000
0.407295 0.908813 0.000000
0.529438 0.942956 0.000000
0.728328 0.962111 0.000000
1.000000 0.968863 0.000000
0.000000 0.366070 0.000000
0.025042 0.369244 0.000000
0.049034 0.377153 0.000000
0.071108 0.389953 0.000000
0.091187 0.407295 0.000000
0.108131 0.429312 0.000000
0.122539 0.456317 0.000000
0.134027 0.487854 0.000000
0.143375 0.524531 0.000000
0.150994 0.566555 0.000000
0.159705 0.610681 0.000000
0.169656 0.657609 0.000000
0.182865 0.705054 0.000000
0.199260 0.757353 0.000000
0.223691 0.806171 0.000000
0.259205 0.854171 0.000000
0.312514 0.893902 0.000000
0.389953 0.928892 0.000000
0.514002 0.956066 0.000000
0.717576 0.971693 0.000000
1.000000 0.977148 0.000000
0.000000 0.491567 0.000000
0.015279 0.494699 0.000000
0.030070 0.502538 0.000000
0.043934 0.514002 0.000000
0.057044 0.529438 0.000000
0.069296 0.548084 0.000000
0.080686 0.571694 0.000000
0.091110 0.599064 0.000000
0.101189 0.631089 0.000000
0.111303 0.667659 0.000000
0.123285 0.705141 0.000000
0.137114 0.743280 0.000000
0.153583 0.782333 0.000000
0.174556 0.822792 0.000000
0.202135 0.860772 0.000000
0.242062 0.896457 0.000000
0.297964 0.925703 0.000000
0.377153 0.950966 0.000000
0.502538 0.969930 0.000000
0.709009 0.981148 0.000000
1.000000 0.985043 0.000000
0.000000 0.700724 0.000000
0.009352 0.702952 0.000000
0.018852 0.709009 0.000000
0.028307 0.717576 0.000000
0.037889 0.728328 0.000000
0.047546 0.741175 0.000000
0.057505 0.757343 0.000000
0.067783 0.775452 0.000000
0.078842 0.796389 0.000000
0.090844 0.819432 0.000000
0.104600 0.841940 0.000000
0.120788 0.863821 0.000000
0.139760 0.886381 0.000000
0.162965 0.908570 0.000000
0.192901 0.929125 0.000000
0.234603 0.946789 0.000000
0.289565 0.961813 0.000000
0.369244 0.974958 0.000000
0.494699 0.984721 0.000000
0.702952 0.990648 0.000000
1.000000 0.992684 0.000000
0.000000 1.000000 0.000000
0.007316 1.000000 0.000000
0.014957 1.000000 0.000000
0.022852 1.000000 0.000000
0.031137 1.000000 0.000000
0.039713 1.000000 0.000000
0.048840 1.000000 0.000000
0.058327 1.000000 0.000000
0.069419 1.000000 0.000000
0.081859 1.000000 0.000000
0.095836 1.000000 0.000000
0.112669 1.000000 0.000000
0.131971 1.000000 0.000000
0.156211 1.000000 0.000000
0.186849 1.000000 0.000000
0.229472 1.000000 0.000000
0.285480 1.000000 0.000000
0.366070 1.000000 0.000000
0.491567 1.000000 0.000000
0.700724 1.000000 0.000000
1.000000 1.000000 0.000000
0.000000 0.000000 0.082500
0.299276 0.000000 0.082500
0.508433 0.000000 0.082500
0.633930 0.000000 0.082500
0.714520 0.000000 0.082500
0.770528 0.000000 0.082500
0.813151 0.000000 0.082500
0.843789 0.000000 0.082500
0.868029 0.000000 0.082500
0.887331 0.000000 0.082500
0.904164 0.000000 0.082500
0.918141 0.000000 0.082500
0.930581 0.000000 0.082500
0.941673 0.000000 0.082500
0.951160 0.000000 0.082500
0.960287 0.000000 0.082500
0.968863 0.000000 0.082500
0.977148 0.000000 0.082500
0.985043 0.000000 0.082500
0.992684 0.000000 0.082500
1.000000 0.000000 0.082500
0.000000 0.007316 0.082500
0.297048 0.009352 0.082500
0.505301 0.015279 0.082500
0.630756 0.025042 0.082500
0.710435 0.038187 0.082500
0.765397 0.053211 0.082500
0.807099 0.070875 0.082500
0.837035 0.091430 0.082500
0.860240 0.113619 0.082500
0.879212 0.136179 0.082500
0.895400 0.158060 0.082500
0.909156 0.180568 0.082500
0.921158 0.203611 0.082500
0.932217 0.224548 0.082500
0.942495 0.242657 0.082500
0.952454 0.258825 0.082500
0.962111 0.271672 0.082500
0.971693 0.282424 0.082500
0.981148 0.290991 0.082500
0.990648 0.297048 0.082500
1.000000 0.299276 0.082500
0.000000 0.014957 0.082500
0.290991 0.018852 0.082500
0.497462 0.030070 0.082500
0.622847 0.049034 0.082500
0.702036 0.074297 0.082500
0.757938 0.103543 0.082500
0.797865 0.139228 0.082500
0.825444 0.177208 0.082500
0.846417 0.217667 0.082500
0.862886 0.256720 0.082500
0.876715 0.294859 0.082500
0.888697 0.332341 0.082500
0.898811 0.368911 0.082500
0.908890 0.400936 0.082500
0.919314 0.428306 0.082500
0.930704 0.451916 0.082500
0.942956 0.470562 0.082500
0.956066 0.485998 0.082500
0.969930 0.497462 0.082500
0.984721 0.505301 0.082500
1.000000 0.508433 0.082500
0.000000 0.022852 0.082500
0.282424 0.028307 0.082500
0.485998 0.043934 0.082500
0.610047 0.071108 0.082500
0.687486 0.106098 0.082500
0.740795 0.145829 0.082500
0.776309 0.193829 0.082500
0.800740 0.242647 0.082500
0.817135 0.294946 0.082500
0.830344 0.342391 0.082500
0.840295 0.389319 0.082500
0.849006 0.433445 0.082500
0.856625 0.475469 0.082500
0.865973 0.512146 0.082500
0.877461 0.543683 0.082500
0.891869 0.570688 0.082500
0.908813 0.592705 0.082500
0.928892 0.610047 0.082500
0.950966 0.622847 0.082500
0.974958 0.630756 0.082500
1.000000 0.633930 0.082500
0.000000 0.031137 0.082500
0.271672 0.037889 0.082500
0.470562 0.057044 0.082500
0.592705 0.091187 0.082500
0.669756 0.134521 0.082500
0.720774 0.184546 0.082500
0.751023 0.243129 0.082500
0.771842 0.299396 0.082500
0.782278 0.359874 0.082500
0.791889 0.411691 0.082500
0.796786 0.463401 0.082500
0.801615 0.509721 0.082500
0.805880 0.552377 0.082500
0.814681 0.588576 0.082500
0.826884 0.620126 0.082500
0.843973 0.647060 0.082500
0.865479 0.669756 0.082500
0.893902 0.687486 0.082500
0.925703 0.702036 0.082500
0.961813 0.710435 0.082500
1.000000 0.714520 0.082500
0.000000 0.039713 0.082500
0.258825 0.047546 0.082500
0.451916 0.069296 0.082500
0.570688 0.108131 0.082500
0.647060 0.156027 0.082500
0.694414 0.210932 0.082500
0.719709 0.272178 0.082500
0.737092 0.331411 0.082500
0.742790 0.392110 0.082500
0.748702 0.445385 0.082500
0.748813 0.497083 0.082500
0.749121 0.544380 0.082500
0.749398 0.588277 0.082500
0.756220 0.628146 0.082500
0.769052 0.663391 0.082500
0.789068 0.694414 0.082500
0.815454 0.720774 0.082500
0.854171 0.740795 0.082500
0.896457 0.757938 0.082500
0.946789 0.765397 0.082500
1.000000 0.770528 0.082500
0.000000 0.048840 0.082500
0.242657 0.057505 0.082500
0.428306 0.080686 0.082500
0.543683 0.122539 0.082500
0.620126 0.173116 0.082500
0.663391 0.230948 0.082500
0.685357 0.293038 0.082500
0.698972 0.353549 0.082500
0.700752 0.413591 0.082500
0.702452 0.466997 0.082500
0.697856 0.517542 0.082500
0.694146 0.564017 0.082500
0.690766 0.607173 0.082500
0.695451 0.647784 0.082500
0.706962 0.685357 0.082500
0.727822 0.719709 0.082500
0.756871 0.751023 0.082500
0.806171 0.776309 0.082500
0.860772 0.797865 0.082500
0.929125 0.807099 0.082500
1.000000 0.813151 0.082500
0.000000 0.058327 0.082500
0.224548 0.067783 0.082500
0.400936 0.091110 0.082500
0.512146 0.134027 0.082500
0.588576 0.185319 0.082500
0.628146 0.243780 0.082500
0.647784 0.304549 0.082500
0.657969 0.364586 0.082500
0.657020 0.422718 0.082500
0.654569 0.475377 0.082500
0.646167 0.524475 0.082500
0.638887 0.570683 0.082500
0.632462 0.614498 0.082500
0.635414 0.657969 0.082500
0.646451 0.698972 0.082500
0.668589 0.737092 0.082500
0.700604 0.771842 0.082500
0.757353 0.800740 0.082500
0.822792 0.825444 0.082500
0.908570 0.837035 0.082500
1.000000 0.843789 0.082500
0.000000 0.069419 0.082500
0.203611 0.078842 0.082500
0.368911 0.101189 0.082500
0.475469 0.143375 0.082500
0.552377 0.194120 0.082500
0.588277 0.250602 0.082500
0.607173 0.309234 0.082500
0.614498 0.367538 0.082500
0.611815 0.423968 0.082500
0.605524 0.475243 0.082500
0.594111 0.522731 0.082500
0.584343 0.568185 0.082500
0.576032 0.611815 0.082500
0.577282 0.657020 0.082500
0.586409 0.700752 0.082500
0.607890 0.742790 0.082500
0.640126 0.782278 0.082500
0.705054 0.817135 0.082500
0.782333 0.846417 0.082500
0.886381 0.860240 0.082500
1.000000 0.868029 0.082500
0.000000 0.081859 0.082500
0.180568 0.090844 0.082500
0.332341 0.111303 0.082500
0.433445 0.150994 0.082500
0.509721 0.198385 0.082500
0.544380 0.250879 0.082500
0.564017 0.305854 0.082500
0.570683 0.361113 0.082500
0.568185 0.415657 0.082500
0.559470 0.465513 0.082500
0.546543 0.512884 0.082500
0.534487 0.559470 0.082500
0.524757 0.605524 0.082500
0.524623 0.654569 0.082500
0.533003 0.702452 0.082500
0.554615 0.748702 0.082500
0.588309 0.791889 0.082500
0.657609 0.830344 0.082500
0.743280 0.862886 0.082500
0.863821 0.879212 0.082500
1.000000 0.887331 0.082500
0.000000 0.095836 0.082500
0.158060 0.104600 0.082500
0.294859 0.123285 0.082500
0.389319 0.159705 0.082500
0.463401 0.203214 0.082500
0.497083 0.251187 0.082500
0.517542 0.302144 0.082500
0.524475 0.353833 0.082500
0.522731 0.405889 0.082500
0.512884 0.453457 0.082500
0.500000 0.500000 0.082500
0.487116 0.546543 0.082500
0.477269 0.594111 0.082500
0.475525 0.646167 0.082500
0.482458 0.697856 0.082500
0.502917 0.748813 0.082500
0.536599 0.796786 0.082500
0.610681 0.840295 0.082500
0.705141 0.876715 0.082500
0.841940 0.895400 0.082500
1.000000 0.904164 0.082500
0.000000 0.112669 0.082500
0.136179 0.120788 0.082500
0.256720 0.137114 0.082500
0.342391 0.169656 0.082500
0.411691 0.208111 0.082500
0.445385 0.251298 0.082500
0.466997 0.297548 0.082500
0.475377 0.345431 0.082500
0.475243 0.394476 0.082500
0.465513 0.440530 0.082500
0.453457 0.487116 0.082500
0.440530 0.534487 0.082500
0.431815 0.584343 0.082500
0.429317 0.638887 0.082500
0.435983 0.694146 0.082500
0.455620 0.749121 0.082500
0.490279 0.801615 0.082500
0.566555 0.849006 0.082500
0.667659 0.888697 0.082500
0.819432 0.909156 0.082500
1.000000 0.918141 0.082500
0.000000 0.131971 0.082500
0.113619 0.139760 0.082500
0.217667 0.153583 0.082500
0.294946 0.182865 0.082500
0.359874 0.217722 0.082500
0.392110 0.257210 0.082500
0.413591 0.299248 0.082500
0.422718 0.342980 0.082500
0.423968 0.388185 0.082500
0.415657 0.431815 0.082500
0.405889 0.477269 0.082500
0.394476 0.524757 0.082500
0.388185 0.576032 0.082500
0.385502 0.632462 0.082500
0.392827 0.690766 0.082500
0.411723 0.749398 0.082500
0.447623 0.805880 0.082500
0.524531 0.856625 0.082500
0.631089 0.898811 0.082500
0.796389 0.921158 0.082500
1.000000 0.930581 0.082500
0.000000 0.156211 0.082500
0.091430 0.162965 0.082500
0.177208 0.174556 0.082500
0.242647 0.199260 0.082500
0.299396 0.228158 0.082500
0.331411 0.262908 0.082500
0.353549 0.301028 0.082500
0.364586 0.342031 0.082500
0.367538 0.385502 0.082500
0.361113 0.429317 0.082500
0.353833 0.475525 0.082500
0.345431 0.524623 0.082500
0.342980 0.577282 0.082500
0.342031 0.635414 0.082500
0.352216 0.695451 0.082500
0.371854 0.756220 0.082500
0.411424 0.814681 0.082500
0.487854 0.865973 0.082500
0.599064 0.908890 0.082500
0.775452 0.932217 0.082500
1.000000 0.941673 0.082500
0.000000 0.186849 0.082500
0.070875 0.192901 0.082500
0.139228 0.202135 0.082500
0.193829 0.223691 0.082500