# vtk DataFile Version 2.0
Mesh for Fierro
ASCII 
DATASET UNSTRUCTURED_GRID

POINTS 2205 float
0.000000 0.000000 0.000000
0.553242 0.000000 0.000000
0.891480 0.000000 0.000000
0.911670 0.000000 0.000000
0.926620 0.000000 0.000000
0.938721 0.000000 0.000000
0.947679 0.000000 0.000000
0.956447 0.000000 0.000000
0.963119 0.000000 0.000000
0.968592 0.000000 0.000000
0.973085 0.000000 0.000000
0.976703 0.000000 0.000000
0.979556 0.000000 0.000000
0.981902 0.000000 0.000000
0.984082 0.000000 0.000000
0.986240 0.000000 0.000000
0.988485 0.000000 0.000000
0.991303 0.000000 0.000000
0.994483 0.000000 0.000000
0.997891 0.000000 0.000000
1.000000 0.000000 0.000000
0.000000 0.002109 0.000000
0.564224 0.005378 0.000000
0.868287 0.029696 0.000000
0.879845 0.097344 0.000000
0.908724 0.109325 0.000000
0.923116 0.169399 0.000000
0.933292 0.222929 0.000000
0.938704 0.280873 0.000000
0.942308 0.340007 0.000000
0.945455 0.391479 0.000000
0.948630 0.438575 0.000000
0.951770 0.482702 0.000000
0.954745 0.523952 0.000000
0.958363 0.557260 0.000000
0.962497 0.584355 0.000000
0.967528 0.604743 0.000000
0.973202 0.619182 0.000000
0.980668 0.612146 0.000000
0.988059 0.589974 0.000000
0.994622 0.564224 0.000000
1.000000 0.553242 0.000000
0.000000 0.005517 0.000000
0.589974 0.011941 0.000000
0.844824 0.047469 0.000000
0.860420 0.141581 0.000000
0.901383 0.209955 0.000000
0.910170 0.311790 0.000000
0.911869 0.398149 0.000000
0.912429 0.481122 0.000000
0.907976 0.554232 0.000000
0.905050 0.605600 0.000000
0.899187 0.648612 0.000000
0.891233 0.681863 0.000000
0.882913 0.709056 0.000000
0.881233 0.730254 0.000000
0.885119 0.749046 0.000000
0.895129 0.768183 0.000000
0.909728 0.789714 0.000000
0.930249 0.816572 0.000000
0.952531 0.844824 0.000000
0.970304 0.868287 0.000000
1.000000 0.891480 0.000000
0.000000 0.008697 0.000000
0.612146 0.019332 0.000000
0.816572 0.069751 0.000000
0.859340 0.183727 0.000000
0.883364 0.302114 0.000000
0.882332 0.391115 0.000000
0.882323 0.478396 0.000000
0.867459 0.559527 0.000000
0.848633 0.616326 0.000000
0.829897 0.661937 0.000000
0.805035 0.704220 0.000000
0.783145 0.741959 0.000000
0.764390 0.776989 0.000000
0.759506 0.804762 0.000000
0.763560 0.826165 0.000000
0.775176 0.841538 0.000000
0.793484 0.852102 0.000000
0.816273 0.859340 0.000000
0.858419 0.860420 0.000000
0.902656 0.879845 0.000000
1.000000 0.911670 0.000000
0.000000 0.011515 0.000000
0.619182 0.026798 0.000000
0.789714 0.090272 0.000000
0.852102 0.206516 0.000000
0.849204 0.346630 0.000000
0.855327 0.434702 0.000000
0.845195 0.533806 0.000000
0.808596 0.603301 0.000000
0.776973 0.654447 0.000000
0.743223 0.695995 0.000000
0.709129 0.727600 0.000000
0.686836 0.749824 0.000000
0.664757 0.764732 0.000000
0.649775 0.779655 0.000000
0.642051 0.797123 0.000000
0.640777 0.820571 0.000000
0.653370 0.849204 0.000000
0.697886 0.883364 0.000000
0.790045 0.901383 0.000000
0.890675 0.908724 0.000000
1.000000 0.926620 0.000000
0.000000 0.013760 0.000000
0.604743 0.032472 0.000000
0.768183 0.104871 0.000000
0.841538 0.224824 0.000000
0.820571 0.359223 0.000000
0.831070 0.458316 0.000000
0.808472 0.546594 0.000000
0.763215 0.603735 0.000000
0.723790 0.650588 0.000000
0.682172 0.684983 0.000000
0.636527 0.710899 0.000000
0.594293 0.732864 0.000000
0.554899 0.754105 0.000000
0.535660 0.780346 0.000000
0.529047 0.805909 0.000000
0.541684 0.831070 0.000000
0.565298 0.855327 0.000000
0.608885 0.882332 0.000000
0.688210 0.910170 0.000000
0.830601 0.923116 0.000000
1.000000 0.938721 0.000000
0.000000 0.015918 0.000000
0.584355 0.037503 0.000000
0.749046 0.114881 0.000000
0.826165 0.236440 0.000000
0.797123 0.357949 0.000000
0.805909 0.470953 0.000000
0.768473 0.544639 0.000000
0.721703 0.595695 0.000000
0.672514 0.636866 0.000000
0.626194 0.664361 0.000000
0.578830 0.683389 0.000000
0.538503 0.701673 0.000000
0.502261 0.716671 0.000000
0.475267 0.740819 0.000000
0.455361 0.768473 0.000000
0.453406 0.808472 0.000000
0.466194 0.845195 0.000000
0.521604 0.882323 0.000000
0.601851 0.911869 0.000000
0.777071 0.933292 0.000000
1.000000 0.947679 0.000000
0.000000 0.018098 0.000000
0.557260 0.041637 0.000000
0.730254 0.118767 0.000000
0.804762 0.240494 0.000000
0.779655 0.350225 0.000000
0.780346 0.464340 0.000000
0.740819 0.524733 0.000000
0.691392 0.574449 0.000000
0.639464 0.606288 0.000000
0.591235 0.628650 0.000000
0.542111 0.642789 0.000000
0.496665 0.654258 0.000000
0.455624 0.666762 0.000000
0.425551 0.691392 0.000000
0.404305 0.721703 0.000000
0.396265 0.763215 0.000000
0.396699 0.808596 0.000000
0.440473 0.867459 0.000000
0.518878 0.912429 0.000000
0.719127 0.938704 0.000000
1.000000 0.956447 0.000000
0.000000 0.020444 0.000000
0.523952 0.045255 0.000000
0.709056 0.117087 0.000000
0.776989 0.235610 0.000000
0.764732 0.335243 0.000000
0.754105 0.445101 0.000000
0.716671 0.497739 0.000000
0.666762 0.544376 0.000000
0.613253 0.568233 0.000000
0.564623 0.587339 0.000000
0.517065 0.595417 0.000000
0.473577 0.604210 0.000000
0.431767 0.613253 0.000000
0.393712 0.639464 0.000000
0.363134 0.672514 0.000000
0.349412 0.723790 0.000000
0.345553 0.776973 0.000000
0.383674 0.848633 0.000000
0.445768 0.907976 0.000000
0.659993 0.942308 0.000000
1.000000 0.963119 0.000000
0.000000 0.023297 0.000000
0.482702 0.048230 0.000000
0.681863 0.108767 0.000000
0.741959 0.216855 0.000000
0.749824 0.313164 0.000000
0.732864 0.405707 0.000000
0.701673 0.461497 0.000000
0.654258 0.503335 0.000000
0.604210 0.526423 0.000000
0.554471 0.541820 0.000000
0.505535 0.547703 0.000000
0.458180 0.554471 0.000000
0.412661 0.564623 0.000000
0.371350 0.591235 0.000000
0.335639 0.626194 0.000000
0.315017 0.682172 0.000000
0.304005 0.743223 0.000000
0.338063 0.829897 0.000000
0.394400 0.905050 0.000000
0.608521 0.945455 0.000000
1.000000 0.968592 0.000000
0.000000 0.026915 0.000000
0.438575 0.051370 0.000000
0.648612 0.100813 0.000000
0.704220 0.194965 0.000000
0.727600 0.290871 0.000000
0.710899 0.363473 0.000000
0.683389 0.421170 0.000000
0.642789 0.457889 0.000000
0.595417 0.482935 0.000000
0.547703 0.494465 0.000000
0.500000 0.500000 0.000000
0.452297 0.505535 0.000000
0.404583 0.517065 0.000000
0.357211 0.542111 0.000000
0.316611 0.578830 0.000000
0.289101 0.636527 0.000000
0.272400 0.709129 0.000000
0.295780 0.805035 0.000000
0.351388 0.899187 0.000000
0.561425 0.948630 0.000000
1.000000 0.973085 0.000000
0.000000 0.031408 0.000000
0.391479 0.054545 0.000000
0.605600 0.094950 0.000000
0.661937 0.170103 0.000000
0.695995 0.256777 0.000000
0.684983 0.317828 0.000000
0.664361 0.373806 0.000000
0.628650 0.408765 0.000000
0.587339 0.435377 0.000000
0.541820 0.445529 0.000000
0.494465 0.452297 0.000000
0.445529 0.458180 0.000000
0.395790 0.473577 0.000000
0.345742 0.496665 0.000000
0.298327 0.538503 0.000000
0.267136 0.594293 0.000000
0.250176 0.686836 0.000000
0.258041 0.783145 0.000000
0.318137 0.891233 0.000000
0.517298 0.951770 0.000000
1.000000 0.976703 0.000000
0.000000 0.036881 0.000000
0.340007 0.057692 0.000000
0.554232 0.092024 0.000000
0.616326 0.151367 0.000000
0.654447 0.223027 0.000000
0.650588 0.276210 0.000000
0.636866 0.327486 0.000000
0.606288 0.360536 0.000000
0.568233 0.386747 0.000000
0.526423 0.395790 0.000000
0.482935 0.404583 0.000000
0.435377 0.412661 0.000000
0.386747 0.431767 0.000000
0.333238 0.455624 0.000000
0.283329 0.502261 0.000000
0.245895 0.554899 0.000000
0.235268 0.664757 0.000000
0.223011 0.764390 0.000000
0.290944 0.882913 0.000000
0.476048 0.954745 0.000000
1.000000 0.979556 0.000000
0.000000 0.043553 0.000000
0.280873 0.061296 0.000000
0.481122 0.087571 0.000000
0.559527 0.132541 0.000000
0.603301 0.191404 0.000000
0.603735 0.236785 0.000000
0.595695 0.278297 0.000000
0.574449 0.308608 0.000000
0.544376 0.333238 0.000000
0.503335 0.345742 0.000000
0.457889 0.357211 0.000000
0.408765 0.371350 0.000000
0.360536 0.393712 0.000000
0.308608 0.425551 0.000000
0.259181 0.475267 0.000000
0.219654 0.535660 0.000000
0.220345 0.649775 0.000000
0.195238 0.759506 0.000000
0.269746 0.881233 0.000000
0.442740 0.958363 0.000000
1.000000 0.981902 0.000000
0.000000 0.052321 0.000000
0.222929 0.066708 0.000000
0.398149 0.088131 0.000000
0.478396 0.117677 0.000000
0.533806 0.154805 0.000000
0.546594 0.191528 0.000000
0.544639 0.231527 0.000000
0.524733 0.259181 0.000000
0.497739 0.283329 0.000000
0.461497 0.298327 0.000000
0.421170 0.316611 0.000000
0.373806 0.335639 0.000000
0.327486 0.363134 0.000000
0.278297 0.404305 0.000000
0.231527 0.455361 0.000000
0.194091 0.529047 0.000000
0.202877 0.642051 0.000000
0.173835 0.763560 0.000000
0.250954 0.885119 0.000000
0.415645 0.962497 0.000000
1.000000 0.984082 0.000000
0.000000 0.061279 0.000000
0.169399 0.076884 0.000000
0.311790 0.089830 0.000000
0.391115 0.117668 0.000000
0.434702 0.144673 0.000000
0.458316 0.168930 0.000000
0.470953 0.194091 0.000000
0.464340 0.219654 0.000000
0.445101 0.245895 0.000000
0.405707 0.267136 0.000000
0.363473 0.289101 0.000000
0.317828 0.315017 0.000000
0.276210 0.349412 0.000000
0.236785 0.396265 0.000000
0.191528 0.453406 0.000000
0.168930 0.541684 0.000000
0.179429 0.640777 0.000000
0.158462 0.775176 0.000000
0.231817 0.895129 0.000000
0.395257 0.967528 0.000000
1.000000 0.986240 0.000000
0.000000 0.073380 0.000000
0.109325 0.091276 0.000000
0.209955 0.098617 0.000000
0.302114 0.116636 0.000000
0.346630 0.150796 0.000000
0.359223 0.179429 0.000000
0.357949 0.202877 0.000000
0.350225 0.220345 0.000000
0.335243 0.235268 0.000000
0.313164 0.250176 0.000000
0.290871 0.272400 0.000000
0.256777 0.304005 0.000000
0.223027 0.345553 0.000000
0.191404 0.396699 0.000000
0.154805 0.466194 0.000000
0.144673 0.565298 0.000000
0.150796 0.653370 0.000000
0.147898 0.793484 0.000000
0.210286 0.909728 0.000000
0.380818 0.973202 0.000000
1.000000 0.988485 0.000000
0.000000 0.088330 0.000000
0.097344 0.120155 0.000000
0.141581 0.139580 0.000000
0.183727 0.140660 0.000000
0.206516 0.147898 0.000000
0.224824 0.158462 0.000000
0.236440 0.173835 0.000000
0.240494 0.195238 0.000000
0.235610 0.223011 0.000000
[...]
POINT_DATA 2205 
VECTORS pos float 
0.000000 0.000000 0.000000
0.553242 0.000000 0.000000
0.891480 0.000000 0.000000
0.911670 0.000000 0.000000
0.926620 0.000000 0.000000
0.938721 0.000000 0.000000
0.947679 0.000000 0.000000
0.956447 0.000000 0.000000
0.963119 0.000000 0.000000
0.968592 0.000000 0.000000
0.973085 0.000000 0.000000
0.976703 0.000000 0.000000
0.979556 0.000000 0.000000
0.981902 0.000000 0.000000
0.984082 0.000000 0.000000
0.986240 0.000000 0.000000
0.988485 0.000000 0.000000
0.991303 0.000000 0.000000
0.994483 0.000000 0.000000
0.997891 0.000000 0.000000
1.000000 0.000000 0.000000
0.000000 0.002109 0.000000
0.564224 0.005378 0.000000
0.868287 0.029696 0.000000
0.879845 0.097344 0.000000
0.908724 0.109325 0.000000
0.923116 0.169399 0.000000
0.933292 0.222929 0.000000
0.938704 0.280873 0.000000
0.942308 0.340007 0.000000
0.945455 0.391479 0.000000
0.948630 0.438575 0.000000
0.951770 0.482702 0.000000
0.954745 0.523952 0.000000
0.958363 0.557260 0.000000
0.962497 0.584355 0.000000
0.967528 0.604743 0.000000
0.973202 0.619182 0.000000
0.980668 0.612146 0.000000
0.988059 0.589974 0.000000
0.994622 0.564224 0.000000
1.000000 0.553242 0.000000
0.000000 0.005517 0.000000
0.589974 0.011941 0.000000
0.844824 0.047469 0.000000
0.860420 0.141581 0.000000
0.901383 0.209955 0.000000
0.910170 0.311790 0.000000
0.911869 0.398149 0.000000
0.912429 0.481122 0.000000
0.907976 0.554232 0.000000
0.905050 0.605600 0.000000
0.899187 0.648612 0.000000
0.891233 0.681863 0.000000
0.882913 0.709056 0.000000
0.881233 0.730254 0.000000
0.885119 0.749046 0.000000
0.895129 0.768183 0.000000
0.909728 0.789714 0.000000
0.930249 0.816572 0.000000
0.952531 0.844824 0.000000
0.970304 0.868287 0.000000
1.000000 0.891480 0.000000
0.000000 0.008697 0.000000
0.612146 0.019332 0.000000
0.816572 0.069751 0.000000
0.859340 0.183727 0.000000
0.883364 0.302114 0.000000
0.882332 0.391115 0.000000
0.882323 0.478396 0.000000
0.867459 0.559527 0.000000
0.848633 0.616326 0.000000
0.829897 0.661937 0.000000
0.805035 0.704220 0.000000
0.783145 0.741959 0.000000
0.764390 0.776989 0.000000
0.759506 0.804762 0.000000
0.763560 0.826165 0.000000
0.775176 0.841538 0.000000
0.793484 0.852102 0.000000
0.816273 0.859340 0.000000
0.858419 0.860420 0.000000
0.902656 0.879845 0.000000
1.000000 0.911670 0.000000
0.000000 0.011515 0.000000
0.619182 0.026798 0.000000
0.789714 0.090272 0.000000
0.852102 0.206516 0.000000
0.849204 0.346630 0.000000
0.855327 0.434702 0.000000
0.845195 0.533806 0.000000
0.808596 0.603301 0.000000
0.776973 0.654447 0.000000
0.743223 0.695995 0.000000
0.709129 0.727600 0.000000
0.686836 0.749824 0.000000
0.664757 0.764732 0.000000
0.649775 0.779655 0.000000
0.642051 0.797123 0.000000
0.640777 0.820571 0.000000
0.653370 0.849204 0.000000
0.697886 0.883364 0.000000
0.790045 0.901383 0.000000
0.890675 0.908724 0.000000
1.000000 0.926620 0.000000
0.000000 0.013760 0.000000
0.604743 0.032472 0.000000
0.768183 0.104871 0.000000
0.841538 0.224824 0.000000
0.820571 0.359223 0.000000
0.831070 0.458316 0.000000
0.808472 0.546594 0.000000
0.763215 0.603735 0.000000
0.723790 0.650588 0.000000
0.682172 0.684983 0.000000
0.636527 0.710899 0.000000
0.594293 0.732864 0.000000
0.554899 0.754105 0.000000
0.535660 0.780346 0.000000
0.529047 0.805909 0.000000
0.541684 0.831070 0.000000
0.565298 0.855327 0.000000
0.608885 0.882332 0.000000
0.688210 0.910170 0.000000
0.830601 0.923116 0.000000
1.000000 0.938721 0.000000
0.000000 0.015918 0.000000
0.584355 0.037503 0.000000
0.749046 0.114881 0.000000
0.826165 0.236440 0.000000
0.797123 0.357949 0.000000
0.805909 0.470953 0.000000
0.768473 0.544639 0.000000
0.721703 0.595695 0.000000
0.672514 0.636866 0.000000
0.626194 0.664361 0.000000
0.578830 0.683389 0.000000
0.538503 0.701673 0.000000
0.502261 0.716671 0.000000
0.475267 0.740819 0.000000
0.455361 0.768473 0.000000
0.453406 0.808472 0.000000
0.466194 0.845195 0.000000
0.521604 0.882323 0.000000
0.601851 0.911869 0.000000
0.777071 0.933292 0.000000
1.000000 0.947679 0.000000
0.000000 0.018098 0.000000
0.557260 0.041637 0.000000
0.730254 0.118767 0.000000
0.804762 0.240494 0.000000
0.779655 0.350225 0.000000
0.780346 0.464340 0.000000
0.740819 0.524733 0.000000
0.691392 0.574449 0.000000
0.639464 0.606288 0.000000
0.591235 0.628650 0.000000
0.542111 0.642789 0.000000
0.496665 0.654258 0.000000
0.455624 0.666762 0.000000
0.425551 0.691392 0.000000
0.404305 0.721703 0.000000
0.396265 0.763215 0.000000
0.396699 0.808596 0.000000
0.440473 0.867459 0.000000
0.518878 0.912429 0.000000
0.719127 0.938704 0.000000
1.000000 0.956447 0.000000
0.000000 0.020444 0.000000
0.523952 0.045255 0.000000
0.709056 0.117087 0.000000
0.776989 0.235610 0.000000
0.764732 0.335243 0.000000
0.754105 0.445101 0.000000
0.716671 0.497739 0.000000
0.666762 0.544376 0.000000
0.613253 0.568233 0.000000
0.564623 0.587339 0.000000
0.517065 0.595417 0.000000
0.473577 0.604210 0.000000
0.431767 0.613253 0.000000
0.393712 0.639464 0.000000
0.363134 0.672514 0.000000
0.349412 0.723790 0.000000
0.345553 0.776973 0.000000
0.383674 0.848633 0.000000
0.445768 0.907976 0.000000
0.659993 0.942308 0.000000
1.000000 0.963119 0.000000
0.000000 0.023297 0.000000
0.482702 0.048230 0.000000
0.681863 0.108767 0.000000
0.741959 0.216855 0.000000
0.749824 0.313164 0.000000
0.732864 0.405707 0.000000
0.701673 0.461497 0.000000
0.654258 0.503335 0.000000
0.604210 0.526423 0.000000
0.554471 0.541820 0.000000
0.505535 0.547703 0.000000
0.458180 0.554471 0.000000
0.412661 0.564623 0.000000
0.371350 0.591235 0.000000
0.335639 0.626194 0.000000
0.315017 0.682172 0.000000
0.304005 0.743223 0.000000
0.338063 0.829897 0.000000
0.394400 0.905050 0.000000
0.608521 0.945455 0.000000
1.000000 0.968592 0.000000
0.000000 0.026915 0.000000
0.438575 0.051370 0.000000
0.648612 0.100813 0.000000
0.704220 0.194965 0.000000
0.727600 0.290871 0.000000
0.710899 0.363473 0.000000
0.683389 0.421170 0.000000
0.642789 0.457889 0.000000
0.595417 0.482935 0.000000
0.547703 0.494465 0.000000
0.500000 0.500000 0.000000
0.452297 0.505535 0.000000
0.404583 0.517065 0.000000
0.357211 0.542111 0.000000
0.316611 0.578830 0.000000
0.289101 0.636527 0.000000
0.272400 0.709129 0.000000
0.295780 0.805035 0.000000
0.351388 0.899187 0.000000
0.561425 0.948630 0.000000
1.000000 0.973085 0.000000
0.000000 0.031408 0.000000
0.391479 0.054545 0.000000
0.605600 0.094950 0.000000
0.661937 0.170103 0.000000
0.695995 0.256777 0.000000
0.684983 0.317828 0.000000
0.664361 0.373806 0.000000
0.628650 0.408765 0.000000
0.587339 0.435377 0.000000
0.541820 0.445529 0.000000
0.494465 0.452297 0.000000
0.445529 0.458180 0.000000
0.395790 0.473577 0.000000
0.345742 0.496665 0.000000
0.298327 0.538503 0.000000
0.267136 0.594293 0.000000
0.250176 0.686836 0.000000
0.258041 0.783145 0.000000
0.318137 0.891233 0.000000
0.517298 0.951770 0.000000
1.000000 0.976703 0.000000
0.000000 0.036881 0.000000
0.340007 0.057692 0.000000
0.554232 0.092024 0.000000
0.616326 0.151367 0.000000
0.654447 0.223027 0.000000
0.650588 0.276210 0.000000
0.636866 0.327486 0.000000
0.606288 0.360536 0.000000
0.568233 0.386747 0.000000
0.526423 0.395790 0.000000
0.482935 0.404583 0.000000
0.435377 0.412661 0.000000
0.386747 0.431767 0.000000
0.333238 0.455624 0.000000
0.283329 0.502261 0.000000
0.245895 0.554899 0.000000
0.235268 0.664757 0.000000
0.223011 0.764390 0.000000
0.290944 0.882913 0.000000
0.476048 0.954745 0.000000
1.000000 0.979556 0.000000
0.000000 0.043553 0.000000
0.280873 0.061296 0.000000
0.481122 0.087571 0.000000
0.559527 0.132541 0.000000
0.603301 0.191404 0.000000
0.603735 0.236785 0.000000
0.595695 0.278297 0.000000
0.574449 0.308608 0.000000
0.544376 0.333238 0.000000
0.503335 0.345742 0.000000
0.457889 0.357211 0.000000
0.408765 0.371350 0.000000
0.360536 0.393712 0.000000
0.308608 0.425551 0.000000
0.259181 0.475267 0.000000
0.219654 0.535660 0.000000
0.220345 0.649775 0.000000
0.195238 0.759506 0.000000
0.269746 0.881233 0.000000
0.442740 0.958363 0.000000
1.000000 0.981902 0.000000
0.000000 0.052321 0.000000
0.222929 0.066708 0.000000
0.398149 0.088131 0.000000
0.478396 0.117677 0.000000
0.533806 0.154805 0.000000
0.546594 0.191528 0.000000
0.544639 0.231527 0.000000
0.524733 0.259181 0.000000
0.497739 0.283329 0.000000
0.461497 0.298327 0.000000
0.421170 0.316611 0.000000
0.373806 0.335639 0.000000
0.327486 0.363134 0.000000
0.278297 0.404305 0.000000
0.231527 0.455361 0.000000
0.194091 0.529047 0.000000
0.202877 0.642051 0.000000
0.173835 0.763560 0.000000
0.250954 0.885119 0.000000
0.415645 0.962497 0.000000
1.000000 0.984082 0.000000
0.000000 0.061279 0.000000
0.169399 0.076884 0.000000
0.311790 0.089830 0.000000
0.391115 0.117668 0.000000
0.434702 0.144673 0.000000
0.458316 0.168930 0.000000
0.470953 0.194091 0.000000
0.464340 0.219654 0.000000
0.445101 0.245895 0.000000
0.405707 0.267136 0.000000
0.363473 0.289101 0.000000
0.317828 0.315017 0.000000
0.276210 0.349412 0.000000
0.236785 0.396265 0.000000
0.191528 0.453406 0.000000
0.168930 0.541684 0.000000
0.179429 0.640777 0.000000
0.158462 0.775176 0.000000
0.231817 0.895129 0.000000
0.395257 0.967528 0.000000
1.000000 0.986240 0.000000
0.000000 0.073380 0.000000
0.109325 0.091276 0.000000
0.209955 0.098617 0.000000
0.302114 0.116636 0.000000
0.346630 0.150796 0.000000
0.359223 0.179429 0.000000
0.357949 0.202877 0.000000
0.350225 0.220345 0.000000
0.335243 0.235268 0.000000
0.313164 0.250176 0.000000
0.290871 0.272400 0.000000
0.256777 0.304005 0.000000
0.223027 0.345553 0.000000
0.191404 0.396699 0.000000
0.154805 0.466194 0.000000
0.144673 0.565298 0.000000
0.150796 0.653370 0.000000
0.147898 0.793484 0.000000
0.210286 0.909728 0.000000
0.380818 0.973202 0.000000
1.000000 0.988485 0.000000
0.000000 0.088330 0.000000
0.097344 0.120155 0.000000
0.141581 0.139580 0.000000
0.183727 0.140660 0.000000
0.206516 0.147898 0.000000
0.224824 0.158462 0.000000
0.236440 0.173835 0.000000
0.240494 0.195238 0.000000
0.235610 0.223011 0.000000
0.216855 0.258041 0.000000
0.194965 0.295780 0.000000
0.170103 0.338063 0.000000
0.151367 0.383674 0.000000
0.132541 0.440473 0.000000
0.117677 0.521604 0.000000
0.117668 0.608885 0.000000
0.116636 0.697886 0.000000
0.140660 0.816273 0.000000
0.183428 0.930249 0.000000
0.387854 0.980668 0.000000
1.000000 0.991303 0.000000
0.000000 0.108520 0.000000
0.029696 0.131713 0.000000
0.047469 0.155176 0.000000
0.069751 0.183428 0.000000
0.090272 0.210286 0.000000
0.104871 0.231817 0.000000
0.114881 0.250954 0.000000
0.118767 0.269746 0.000000
0.117087 0.290944 0.000000
0.108767 0.318137 0.000000
0.100813 0.351388 0.000000
0.094950 0.394400 0.000000
0.092024 0.445768 0.000000
0.087571 0.518878 0.000000
0.088131 0.601851 0.000000
0.089830 0.688210 0.000000
0.098617 0.790045 0.000000
0.139580 0.858419 0.000000
0.155176 0.952531 0.000000
0.410026 0.988059 0.000000
1.000000 0.994483 0.000000
0.000000 0.446758 0.000000
0.005378 0.435776 0.000000
0.011941 0.410026 0.000000
0.019332 0.387854 0.000000
0.026798 0.380818 0.000000
0.032472 0.395257 0.000000
0.037503 0.415645 0.000000
0.041637 0.442740 0.000000
0.045255 0.476048 0.000000
0.048230 0.517298 0.000000
0.051370 0.561425 0.000000
0.054545 0.608521 0.000000
0.057692 0.659993 0.000000
0.061296 0.719127 0.000000
0.066708 0.777071 0.000000
0.076884 0.830601 0.000000
0.091276 0.890675 0.000000
0.120155 0.902656 0.000000
0.131713 0.970304 0.000000
0.435776 0.994622 0.000000
1.000000 0.997891 0.000000
0.000000 1.000000 0.000000
0.002109 1.000000 0.000000
0.005517 1.000000 0.000000
0.008697 1.000000 0.000000
0.011515 1.000000 0.000000
0.013760 1.000000 0.000000
0.015918 1.000000 0.000000
0.018098 1.000000 0.000000
0.020444 1.000000 0.000000
0.023297 1.000000 0.000000
0.026915 1.000000 0.000000
0.031408 1.000000 0.000000
0.036881 1.000000 0.000000
0.043553 1.000000 0.000000
0.052321 1.000000 0.000000
0.061279 1.000000 0.000000
0.073380 1.000000 0.000000
0.088330 1.000000 0.000000
0.108520 1.000000 0.000000
0.446758 1.000000 0.000000
1.000000 1.000000 0.000000
0.000000 0.000000 0.082500
0.553242 0.000000 0.082500
0.891480 0.000000 0.082500
0.911670 0.000000 0.082500
0.926620 0.000000 0.082500
0.938721 0.000000 0.082500
0.947679 0.000000 0.082500
0.956447 0.000000 0.082500
0.963119 0.000000 0.082500
0.968592 0.000000 0.082500
0.973085 0.000000 0.082500
0.976703 0.000000 0.082500
0.979556 0.000000 0.082500
0.981902 0.000000 0.082500
0.984082 0.000000 0.082500
0.986240 0.000000 0.082500
0.988485 0.000000 0.082500
0.991303 0.000000 0.082500
0.994483 0.000000 0.082500
0.997891 0.000000 0.082500
1.000000 0.000000 0.082500
0.000000 0.002109 0.082500
0.564224 0.005378 0.082500
0.868287 0.029696 0.082500
0.879845 0.097344 0.082500
0.908724 0.109325 0.082500
0.923116 0.169399 0.082500
0.933292 0.222929 0.082500
0.938704 0.280873 0.082500
0.942308 0.340007 0.082500
0.945455 0.391479 0.082500
0.948630 0.438575 0.082500
0.951770 0.482702 0.082500
0.954745 0.523952 0.082500
0.958363 0.557260 0.082500
0.962497 0.584355 0.082500
0.967528 0.604743 0.082500
0.973202 0.619182 0.082500
0.980668 0.612146 0.082500
0.988059 0.589974 0.082500
0.994622 0.564224 0.082500
1.000000 0.553242 0.082500
0.000000 0.005517 0.082500
0.589974 0.011941 0.082500
0.844824 0.047469 0.082500
0.860420 0.141581 0.082500
0.901383 0.209955 0.082500
0.910170 0.311790 0.082500
0.911869 0.398149 0.082500
0.912429 0.481122 0.082500
0.907976 0.554232 0.082500
0.905050 0.605600 0.082500
0.899187 0.648612 0.082500
0.891233 0.681863 0.082500
0.882913 0.709056 0.082500
0.881233 0.730254 0.082500
0.885119 0.749046 0.082500
0.895129 0.768183 0.082500
0.909728 0.789714 0.082500
0.930249 0.816572 0.082500
0.952531 0.844824 0.082500
0.970304 0.868287 0.082500
1.000000 0.891480 0.082500
0.000000 0.008697 0.082500
0.612146 0.019332 0.082500
0.816572 0.069751 0.082500
0.859340 0.183727 0.082500
0.883364 0.302114 0.082500
0.882332 0.391115 0.082500
0.882323 0.478396 0.082500
0.867459 0.559527 0.082500
0.848633 0.616326 0.082500
0.829897 0.661937 0.082500
0.805035 0.704220 0.082500
0.783145 0.741959 0.082500
0.764390 0.776989 0.082500
0.759506 0.804762 0.082500
0.763560 0.826165 0.082500
0.775176 0.841538 0.082500
0.793484 0.852102 0.082500
0.816273 0.859340 0.082500
0.858419 0.860420 0.082500
0.902656 0.879845 0.082500
1.000000 0.911670 0.082500
0.000000 0.011515 0.082500
0.619182 0.026798 0.082500
0.789714 0.090272 0.082500
0.852102 0.206516 0.082500
0.849204 0.346630 0.082500
0.855327 0.434702 0.082500
0.845195 0.533806 0.082500
0.808596 0.603301 0.082500
0.776973 0.654447 0.082500
0.743223 0.695995 0.082500
0.709129 0.727600 0.082500
0.686836 0.749824 0.082500
0.664757 0.764732 0.082500
0.649775 0.779655 0.082500
0.642051 0.797123 0.082500
0.640777 0.820571 0.082500
0.653370 0.849204 0.082500
0.697886 0.883364 0.082500
0.790045 0.901383 0.082500
0.890675 0.908724 0.082500
1.000000 0.926620 0.082500
0.000000 0.013760 0.082500
0.604743 0.032472 0.082500
0.768183 0.104871 0.082500
0.841538 0.224824 0.082500
0.820571 0.359223 0.082500
0.831070 0.458316 0.082500
0.808472 0.546594 0.082500
0.763215 0.603735 0.082500
0.723790 0.650588 0.082500
0.682172 0.684983 0.082500
0.636527 0.710899 0.082500
0.594293 0.732864 0.082500
0.554899 0.754105 0.082500
0.535660 0.780346 0.082500
0.529047 0.805909 0.082500
0.541684 0.831070 0.082500
0.565298 0.855327 0.082500
0.608885 0.882332 0.082500
0.688210 0.910170 0.082500
0.830601 0.923116 0.082500
1.000000 0.938721 0.082500
0.000000 0.015918 0.082500
0.584355 0.037503 0.082500
0.749046 0.114881 0.082500
0.826165 0.236440 0.082500
0.797123 0.357949 0.082500
0.805909 0.470953 0.082500
0.768473 0.544639 0.082500
0.721703 0.595695 0.082500
0.672514 0.636866 0.082500
0.626194 0.664361 0.082500
0.578830 0.683389 0.082500
0.538503 0.701673 0.082500
0.502261 0.716671 0.082500
0.475267 0.740819 0.082500
0.455361 0.768473 0.082500
0.453406 0.808472 0.082500
0.466194 0.845195 0.082500
0.521604 0.882323 0.082500
0.601851 0.911869 0.082500
0.777071 0.933292 0.082500
1.000000 0.947679 0.082500
0.000000 0.018098 0.082500
0.557260 0.041637 0.082500
0.730254 0.118767 0.082500
0.804762 0.240494 0.082500
0.779655 0.350225 0.082500
0.780346 0.464340 0.082500
0.740819 0.524733 0.082500
0.691392 0.574449 0.082500
0.639464 0.606288 0.082500
0.591235 0.628650 0.082500
0.542111 0.642789 0.082500
0.496665 0.654258 0.082500
0.455624 0.666762 0.082500
0.425551 0.691392 0.082500
0.404305 0.721703 0.082500
0.396265 0.763215 0.082500
0.396699 0.808596 0.082500
0.440473 0.867459 0.082500
0.518878 0.912429 0.082500
0.719127 0.938704 0.082500
1.000000 0.956447 0.082500
0.000000 0.020444 0.082500
0.523952 0.045255 0.082500
0.709056 0.117087 0.082500
0.776989 0.235610 0.082500
0.764732 0.335243 0.082500
0.754105 0.445101 0.082500
0.716671 0.497739 0.082500
0.666762 0.544376 0.082500
0.613253 0.568233 0.082500
0.564623 0.587339 0.082500
0.517065 0.595417 0.082500
0.473577 0.604210 0.082500
0.431767 0.613253 0.082500
0.393712 0.639464 0.082500
0.363134 0.672514 0.082500
0.349412 0.723790 0.082500
0.345553 0.776973 0.082500
0.383674 0.848633 0.082500
0.445768 0.907976 0.082500
0.659993 0.942308 0.082500
1.000000 0.963119 0.082500
0.000000 0.023297 0.082500
0.482702 0.048230 0.082500
0.681863 0.108767 0.082500
0.741959 0.216855 0.082500
0.749824 0.313164 0.082500
0.732864 0.405707 0.082500
0.701673 0.461497 0.082500
0.654258 0.503335 0.082500
0.604210 0.526423 0.082500
0.554471 0.541820 0.082500
0.505535 0.547703 0.082500
0.458180 0.554471 0.082500
0.412661 0.564623 0.082500
0.371350 0.591235 0.082500
0.335639 0.626194 0.082500
0.315017 0.682172 0.082500
0.304005 0.743223 0.082500
0.338063 0.829897 0.082500
0.394400 0.905050 0.082500
0.608521 0.945455 0.082500
1.000000 0.968592 0.082500
0.000000 0.026915 0.082500
0.438575 0.051370 0.082500
0.648612 0.100813 0.082500
0.704220 0.194965 0.082500
0.727600 0.290871 0.082500
0.710899 0.363473 0.082500
0.683389 0.421170 0.082500
0.642789 0.457889 0.082500
0.595417 0.482935 0.082500
0.547703 0.494465 0.082500
0.500000 0.500000 0.082500
0.452297 0.505535 0.082500
0.404583 0.517065 0.082500
0.357211 0.542111 0.082500
0.316611 0.578830 0.082500
0.289101 0.636527 0.082500
0.272400 0.709129 0.082500
0.295780 0.805035 0.082500
0.351388 0.899187 0.082500
0.561425 0.948630 0.082500
1.000000 0.973085 0.082500
0.000000 0.031408 0.082500
0.391479 0.054545 0.082500
0.605600 0.094950 0.082500
0.661937 0.170103 0.082500
0.695995 0.256777 0.082500
0.684983 0.317828 0.082500
0.664361 0.373806 0.082500
0.628650 0.408765 0.082500
0.587339 0.435377 0.082500
0.541820 0.445529 0.082500
0.494465 0.452297 0.082500
0.445529 0.458180 0.082500
0.395790 0.473577 0.082500
0.345742 0.496665 0.082500
0.298327 0.538503 0.082500
0.267136 0.594293 0.082500
0.250176 0.686836 0.082500
0.258041 0.783145 0.082500
0.318137 0.891233 0.082500
0.517298 0.951770 0.082500
1.000000 0.976703 0.082500
0.000000 0.036881 0.082500
0.340007 0.057692 0.082500
0.554232 0.092024 0.082500
0.616326 0.151367 0.082500
0.654447 0.223027 0.082500
0.650588 0.276210 0.082500
0.636866 0.327486 0.082500
0.606288 0.360536 0.082500
0.568233 0.386747 0.082500
0.526423 0.395790 0.082500
0.482935 0.404583 0.082500
0.435377 0.412661 0.082500
0.386747 0.431767 0.082500
0.333238 0.455624 0.082500
0.283329 0.502261 0.082500
0.245895 0.554899 0.082500
0.235268 0.664757 0.082500
0.223011 0.764390 0.082500
0.290944 0.882913 0.082500
0.476048 0.954745 0.082500
1.000000 0.979556 0.082500
0.000000 0.043553 0.082500
0.280873 0.061296 0.082500
0.481122 0.087571 0.082500
0.559527 0.132541 0.082500
0.603301 0.191404 0.082500
0.603735 0.236785 0.082500
0.595695 0.278297 0.082500
0.574449 0.308608 0.082500
0.544376 0.333238 0.082500
0.503335 0.345742 0.082500
0.457889 0.357211 0.082500
0.408765 0.371350 0.082500
0.360536 0.393712 0.082500
0.308608 0.425551 0.082500
0.259181 0.475267 0.082500
0.219654 0.535660 0.082500
0.220345 0.649775 0.082500
0.195238 0.759506 0.082500
0.269746 0.881233 0.082500
0.442740 0.958363 0.082500
1.000000 0.981902 0.082500
0.000000 0.052321 0.082500
0.222929 0.066708 0.082500
0.398149 0.088131 0.082500
0.478396 0.117677 0.082500