# vtk DataFile Version 2.0
Mesh for Fierro
ASCII 
DATASET UNSTRUCTURED_GRID

POINTS 2205 float
0.000000 0.000000 0.000000
0.063891 0.000000 0.000000
0.127391 0.000000 0.000000
0.190765 0.000000 0.000000
0.252912 0.000000 0.000000
0.311538 0.000000 0.000000
0.368666 0.000000 0.000000
0.424430 0.000000 0.000000
0.478460 0.000000 0.000000
0.529656 0.000000 0.000000
0.579005 0.000000 0.000000
0.626183 0.000000 0.000000
0.671852 0.000000 0.000000
0.716975 0.000000 0.000000
0.760382 0.000000 0.000000
0.801670 0.000000 0.000000
0.842337 0.000000 0.000000
0.882277 0.000000 0.000000
0.922169 0.000000 0.000000
0.961403 0.000000 0.000000
1.000000 0.000000 0.000000
0.000000 0.038597 0.000000
0.063750 0.038767 0.000000
0.127096 0.039216 0.000000
0.190379 0.039994 0.000000
0.252349 0.041015 0.000000
0.310890 0.042322 0.000000
0.367852 0.043818 0.000000
0.423537 0.045513 0.000000
0.477510 0.047367 0.000000
0.528671 0.049291 0.000000
0.578058 0.051237 0.000000
0.625249 0.053173 0.000000
0.670954 0.055120 0.000000
0.716122 0.056944 0.000000
0.759613 0.058658 0.000000
0.800966 0.060167 0.000000
0.841711 0.061471 0.000000
0.881821 0.062521 0.000000
0.921869 0.063268 0.000000
0.961233 0.063750 0.000000
1.000000 0.063891 0.000000
0.000000 0.077831 0.000000
0.063268 0.078131 0.000000
0.126160 0.079017 0.000000
0.188941 0.080479 0.000000
0.250613 0.082479 0.000000
0.308710 0.085065 0.000000
0.365446 0.088021 0.000000
0.420907 0.091386 0.000000
0.474771 0.095027 0.000000
0.525797 0.098816 0.000000
0.575085 0.102614 0.000000
0.622335 0.106399 0.000000
0.668128 0.110194 0.000000
0.713493 0.113777 0.000000
0.757206 0.117107 0.000000
0.798872 0.120067 0.000000
0.840025 0.122646 0.000000
0.880456 0.124688 0.000000
0.920983 0.126160 0.000000
0.960784 0.127096 0.000000
1.000000 0.127391 0.000000
0.000000 0.117723 0.000000
0.062521 0.118179 0.000000
0.124688 0.119544 0.000000
0.186815 0.121788 0.000000
0.247802 0.124786 0.000000
0.305319 0.128546 0.000000
0.361491 0.132817 0.000000
0.416579 0.137676 0.000000
0.470202 0.142948 0.000000
0.521050 0.148495 0.000000
0.570323 0.154149 0.000000
0.617644 0.159759 0.000000
0.663548 0.165399 0.000000
0.709227 0.170675 0.000000
0.753334 0.175667 0.000000
0.795408 0.180010 0.000000
0.837093 0.183785 0.000000
0.878212 0.186815 0.000000
0.919521 0.188941 0.000000
0.960006 0.190379 0.000000
1.000000 0.190765 0.000000
0.000000 0.157663 0.000000
0.061471 0.158289 0.000000
0.122646 0.159975 0.000000
0.183785 0.162907 0.000000
0.244058 0.166805 0.000000
0.300688 0.171880 0.000000
0.356245 0.177652 0.000000
0.410860 0.184163 0.000000
0.464265 0.191203 0.000000
0.514736 0.198485 0.000000
0.563829 0.205867 0.000000
0.611243 0.213234 0.000000
0.657332 0.220495 0.000000
0.703429 0.227289 0.000000
0.748014 0.233692 0.000000
0.790787 0.239273 0.000000
0.833195 0.244058 0.000000
0.875214 0.247802 0.000000
0.917521 0.250613 0.000000
0.958985 0.252349 0.000000
1.000000 0.252912 0.000000
0.000000 0.198330 0.000000
0.060167 0.199034 0.000000
0.120067 0.201128 0.000000
0.180010 0.204592 0.000000
0.239273 0.209213 0.000000
0.294842 0.215019 0.000000
0.349604 0.221688 0.000000
0.403655 0.229249 0.000000
0.456794 0.237451 0.000000
0.506871 0.246042 0.000000
0.555790 0.254821 0.000000
0.603328 0.263549 0.000000
0.649601 0.272229 0.000000
0.696209 0.280407 0.000000
0.741345 0.288090 0.000000
0.784981 0.294842 0.000000
0.828120 0.300688 0.000000
0.871454 0.305319 0.000000
0.914935 0.308710 0.000000
0.957678 0.310890 0.000000
1.000000 0.311538 0.000000
0.000000 0.239618 0.000000
0.058658 0.240387 0.000000
0.117107 0.242794 0.000000
0.175667 0.246666 0.000000
0.233692 0.251986 0.000000
0.288090 0.258655 0.000000
0.341881 0.266300 0.000000
0.395164 0.274993 0.000000
0.447825 0.284371 0.000000
0.497509 0.294186 0.000000
0.546363 0.304147 0.000000
0.594059 0.314090 0.000000
0.640604 0.323892 0.000000
0.687826 0.333221 0.000000
0.733700 0.341881 0.000000
0.778312 0.349604 0.000000
0.822348 0.356245 0.000000
0.867183 0.361491 0.000000
0.911979 0.365446 0.000000
0.956182 0.367852 0.000000
1.000000 0.368666 0.000000
0.000000 0.283025 0.000000
0.056944 0.283878 0.000000
0.113777 0.286507 0.000000
0.170675 0.290773 0.000000
0.227289 0.296571 0.000000
0.280407 0.303791 0.000000
0.333221 0.312174 0.000000
0.385663 0.321664 0.000000
0.437804 0.331943 0.000000
0.487086 0.342676 0.000000
0.535773 0.353667 0.000000
0.583609 0.364622 0.000000
0.630426 0.375399 0.000000
0.678336 0.385663 0.000000
0.725007 0.395164 0.000000
0.770751 0.403655 0.000000
0.815837 0.410860 0.000000
0.862324 0.416579 0.000000
0.908614 0.420907 0.000000
0.954487 0.423537 0.000000
1.000000 0.424430 0.000000
0.000000 0.328148 0.000000
0.055120 0.329046 0.000000
0.110194 0.331872 0.000000
0.165399 0.336452 0.000000
0.220495 0.342668 0.000000
0.272229 0.350399 0.000000
0.323892 0.359396 0.000000
0.375399 0.369574 0.000000
0.426968 0.380588 0.000000
0.475726 0.392107 0.000000
0.524289 0.403858 0.000000
0.572272 0.415580 0.000000
0.619412 0.426968 0.000000
0.668057 0.437804 0.000000
0.715629 0.447825 0.000000
0.762549 0.456794 0.000000
0.808797 0.464265 0.000000
0.857052 0.470202 0.000000
0.904973 0.474771 0.000000
0.952633 0.477510 0.000000
1.000000 0.478460 0.000000
0.000000 0.373817 0.000000
0.053173 0.374751 0.000000
0.106399 0.377665 0.000000
0.159759 0.382356 0.000000
0.213234 0.388757 0.000000
0.263549 0.396672 0.000000
0.314090 0.405941 0.000000
0.364622 0.416391 0.000000
0.415580 0.427728 0.000000
0.463881 0.439572 0.000000
0.512292 0.451724 0.000000
0.560428 0.463881 0.000000
0.607893 0.475726 0.000000
0.657324 0.487086 0.000000
0.705814 0.497509 0.000000
0.753958 0.506871 0.000000
0.801515 0.514736 0.000000
0.851505 0.521050 0.000000
0.901184 0.525797 0.000000
0.950709 0.528671 0.000000
1.000000 0.529656 0.000000
0.000000 0.420995 0.000000
0.051237 0.421942 0.000000
0.102614 0.424915 0.000000
0.154149 0.429677 0.000000
0.205867 0.436171 0.000000
0.254821 0.444210 0.000000
0.304147 0.453637 0.000000
0.353667 0.464227 0.000000
0.403858 0.475711 0.000000
0.451724 0.487708 0.000000
0.500000 0.500000 0.000000
0.548276 0.512292 0.000000
0.596142 0.524289 0.000000
0.646333 0.535773 0.000000
0.695853 0.546363 0.000000
0.745179 0.555790 0.000000
0.794133 0.563829 0.000000
0.845851 0.570323 0.000000
0.897386 0.575085 0.000000
0.948763 0.578058 0.000000
1.000000 0.579005 0.000000
0.000000 0.470344 0.000000
0.049291 0.471329 0.000000
0.098816 0.474203 0.000000
0.148495 0.478950 0.000000
0.198485 0.485264 0.000000
0.246042 0.493129 0.000000
0.294186 0.502491 0.000000
0.342676 0.512914 0.000000
0.392107 0.524274 0.000000
0.439572 0.536119 0.000000
0.487708 0.548276 0.000000
0.536119 0.560428 0.000000
0.584420 0.572272 0.000000
0.635378 0.583609 0.000000
0.685910 0.594059 0.000000
0.736451 0.603328 0.000000
0.786766 0.611243 0.000000
0.840241 0.617644 0.000000
0.893601 0.622335 0.000000
0.946827 0.625249 0.000000
1.000000 0.626183 0.000000
0.000000 0.521540 0.000000
0.047367 0.522490 0.000000
0.095027 0.525229 0.000000
0.142948 0.529798 0.000000
0.191203 0.535735 0.000000
0.237451 0.543206 0.000000
0.284371 0.552175 0.000000
0.331943 0.562196 0.000000
0.380588 0.573032 0.000000
0.427728 0.584420 0.000000
0.475711 0.596142 0.000000
0.524274 0.607893 0.000000
0.573032 0.619412 0.000000
0.624601 0.630426 0.000000
0.676108 0.640604 0.000000
0.727771 0.649601 0.000000
0.779505 0.657332 0.000000
0.834601 0.663548 0.000000
0.889806 0.668128 0.000000
0.944880 0.670954 0.000000
1.000000 0.671852 0.000000
0.000000 0.575570 0.000000
0.045513 0.576463 0.000000
0.091386 0.579093 0.000000
0.137676 0.583421 0.000000
0.184163 0.589140 0.000000
0.229249 0.596345 0.000000
0.274993 0.604836 0.000000
0.321664 0.614337 0.000000
0.369574 0.624601 0.000000
0.416391 0.635378 0.000000
0.464227 0.646333 0.000000
0.512914 0.657324 0.000000
0.562196 0.668057 0.000000
0.614337 0.678336 0.000000
0.666779 0.687826 0.000000
0.719593 0.696209 0.000000
0.772711 0.703429 0.000000
0.829325 0.709227 0.000000
0.886223 0.713493 0.000000
0.943056 0.716122 0.000000
1.000000 0.716975 0.000000
0.000000 0.631334 0.000000
0.043818 0.632148 0.000000
0.088021 0.634554 0.000000
0.132817 0.638509 0.000000
0.177652 0.643755 0.000000
0.221688 0.650396 0.000000
0.266300 0.658119 0.000000
0.312174 0.666779 0.000000
0.359396 0.676108 0.000000
0.405941 0.685910 0.000000
0.453637 0.695853 0.000000
0.502491 0.705814 0.000000
0.552175 0.715629 0.000000
0.604836 0.725007 0.000000
0.658119 0.733700 0.000000
0.711910 0.741345 0.000000
0.766308 0.748014 0.000000
0.824333 0.753334 0.000000
0.882893 0.757206 0.000000
0.941342 0.759613 0.000000
1.000000 0.760382 0.000000
0.000000 0.688462 0.000000
0.042322 0.689110 0.000000
0.085065 0.691290 0.000000
0.128546 0.694681 0.000000
0.171880 0.699312 0.000000
0.215019 0.705158 0.000000
0.258655 0.711910 0.000000
0.303791 0.719593 0.000000
0.350399 0.727771 0.000000
0.396672 0.736451 0.000000
0.444210 0.745179 0.000000
0.493129 0.753958 0.000000
0.543206 0.762549 0.000000
0.596345 0.770751 0.000000
0.650396 0.778312 0.000000
0.705158 0.784981 0.000000
0.760727 0.790787 0.000000
0.819990 0.795408 0.000000
0.879933 0.798872 0.000000
0.939833 0.800966 0.000000
1.000000 0.801670 0.000000
0.000000 0.747088 0.000000
0.041015 0.747651 0.000000
0.082479 0.749387 0.000000
0.124786 0.752198 0.000000
0.166805 0.755942 0.000000
0.209213 0.760727 0.000000
0.251986 0.766308 0.000000
0.296571 0.772711 0.000000
0.342668 0.779505 0.000000
0.388757 0.786766 0.000000
0.436171 0.794133 0.000000
0.485264 0.801515 0.000000
0.535735 0.808797 0.000000
0.589140 0.815837 0.000000
0.643755 0.822348 0.000000
0.699312 0.828120 0.000000
0.755942 0.833195 0.000000
0.816215 0.837093 0.000000
0.877354 0.840025 0.000000
0.938529 0.841711 0.000000
1.000000 0.842337 0.000000
0.000000 0.809235 0.000000
0.039994 0.809621 0.000000
0.080479 0.811059 0.000000
0.121788 0.813185 0.000000
0.162907 0.816215 0.000000
0.204592 0.819990 0.000000
0.246666 0.824333 0.000000
0.290773 0.829325 0.000000
0.336452 0.834601 0.000000
[...]
POINT_DATA 2205 
VECTORS pos float 
0.000000 0.000000 0.000000
0.063891 0.000000 0.000000
0.127391 0.000000 0.000000
0.190765 0.000000 0.000000
0.252912 0.000000 0.000000
0.311538 0.000000 0.000000
0.368666 0.000000 0.000000
0.424430 0.000000 0.000000
0.478460 0.000000 0.000000
0.529656 0.000000 0.000000
0.579005 0.000000 0.000000
0.626183 0.000000 0.000000
0.671852 0.000000 0.000000
0.716975 0.000000 0.000000
0.760382 0.000000 0.000000
0.801670 0.000000 0.000000
0.842337 0.000000 0.000000
0.882277 0.000000 0.000000
0.922169 0.000000 0.000000
0.961403 0.000000 0.000000
1.000000 0.000000 0.000000
0.000000 0.038597 0.000000
0.063750 0.038767 0.000000
0.127096 0.039216 0.000000
0.190379 0.039994 0.000000
0.252349 0.041015 0.000000
0.310890 0.042322 0.000000
0.367852 0.043818 0.000000
0.423537 0.045513 0.000000
0.477510 0.047367 0.000000
0.528671 0.049291 0.000000
0.578058 0.051237 0.000000
0.625249 0.053173 0.000000
0.670954 0.055120 0.000000
0.716122 0.056944 0.000000
0.759613 0.058658 0.000000
0.800966 0.060167 0.000000
0.841711 0.061471 0.000000
0.881821 0.062521 0.000000
0.921869 0.063268 0.000000
0.961233 0.063750 0.000000
1.000000 0.063891 0.000000
0.000000 0.077831 0.000000
0.063268 0.078131 0.000000
0.126160 0.079017 0.000000
0.188941 0.080479 0.000000
0.250613 0.082479 0.000000
0.308710 0.085065 0.000000
0.365446 0.088021 0.000000
0.420907 0.091386 0.000000
0.474771 0.095027 0.000000
0.525797 0.098816 0.000000
0.575085 0.102614 0.000000
0.622335 0.106399 0.000000
0.668128 0.110194 0.000000
0.713493 0.113777 0.000000
0.757206 0.117107 0.000000
0.798872 0.120067 0.000000
0.840025 0.122646 0.000000
0.880456 0.124688 0.000000
0.920983 0.126160 0.000000
0.960784 0.127096 0.000000
1.000000 0.127391 0.000000
0.000000 0.117723 0.000000
0.062521 0.118179 0.000000
0.124688 0.119544 0.000000
0.186815 0.121788 0.000000
0.247802 0.124786 0.000000
0.305319 0.128546 0.000000
0.361491 0.132817 0.000000
0.416579 0.137676 0.000000
0.470202 0.142948 0.000000
0.521050 0.148495 0.000000
0.570323 0.154149 0.000000
0.617644 0.159759 0.000000
0.663548 0.165399 0.000000
0.709227 0.170675 0.000000
0.753334 0.175667 0.000000
0.795408 0.180010 0.000000
0.837093 0.183785 0.000000
0.878212 0.186815 0.000000
0.919521 0.188941 0.000000
0.960006 0.190379 0.000000
1.000000 0.190765 0.000000
0.000000 0.157663 0.000000
0.061471 0.158289 0.000000
0.122646 0.159975 0.000000
0.183785 0.162907 0.000000
0.244058 0.166805 0.000000
0.300688 0.171880 0.000000
0.356245 0.177652 0.000000
0.410860 0.184163 0.000000
0.464265 0.191203 0.000000
0.514736 0.198485 0.000000
0.563829 0.205867 0.000000
0.611243 0.213234 0.000000
0.657332 0.220495 0.000000
0.703429 0.227289 0.000000
0.748014 0.233692 0.000000
0.790787 0.239273 0.000000
0.833195 0.244058 0.000000
0.875214 0.247802 0.000000
0.917521 0.250613 0.000000
0.958985 0.252349 0.000000
1.000000 0.252912 0.000000
0.000000 0.198330 0.000000
0.060167 0.199034 0.000000
0.120067 0.201128 0.000000
0.180010 0.204592 0.000000
0.239273 0.209213 0.000000
0.294842 0.215019 0.000000
0.349604 0.221688 0.000000
0.403655 0.229249 0.000000
0.456794 0.237451 0.000000
0.506871 0.246042 0.000000
0.555790 0.254821 0.000000
0.603328 0.263549 0.000000
0.649601 0.272229 0.000000
0.696209 0.280407 0.000000
0.741345 0.288090 0.000000
0.784981 0.294842 0.000000
0.828120 0.300688 0.000000
0.871454 0.305319 0.000000
0.914935 0.308710 0.000000
0.957678 0.310890 0.000000
1.000000 0.311538 0.000000
0.000000 0.239618 0.000000
0.058658 0.240387 0.000000
0.117107 0.242794 0.000000
0.175667 0.246666 0.000000
0.233692 0.251986 0.000000
0.288090 0.258655 0.000000
0.341881 0.266300 0.000000
0.395164 0.274993 0.000000
0.447825 0.284371 0.000000
0.497509 0.294186 0.000000
0.546363 0.304147 0.000000
0.594059 0.314090 0.000000
0.640604 0.323892 0.000000
0.687826 0.333221 0.000000
0.733700 0.341881 0.000000
0.778312 0.349604 0.000000
0.822348 0.356245 0.000000
0.867183 0.361491 0.000000
0.911979 0.365446 0.000000
0.956182 0.367852 0.000000
1.000000 0.368666 0.000000
0.000000 0.283025 0.000000
0.056944 0.283878 0.000000
0.113777 0.286507 0.000000
0.170675 0.290773 0.000000
0.227289 0.296571 0.000000
0.280407 0.303791 0.000000
0.333221 0.312174 0.000000
0.385663 0.321664 0.000000
0.437804 0.331943 0.000000
0.487086 0.342676 0.000000
0.535773 0.353667 0.000000
0.583609 0.364622 0.000000
0.630426 0.375399 0.000000
0.678336 0.385663 0.000000
0.725007 0.395164 0.000000
0.770751 0.403655 0.000000
0.815837 0.410860 0.000000
0.862324 0.416579 0.000000
0.908614 0.420907 0.000000
0.954487 0.423537 0.000000
1.000000 0.424430 0.000000
0.000000 0.328148 0.000000
0.055120 0.329046 0.000000
0.110194 0.331872 0.000000
0.165399 0.336452 0.000000
0.220495 0.342668 0.000000
0.272229 0.350399 0.000000
0.323892 0.359396 0.000000
0.375399 0.369574 0.000000
0.426968 0.380588 0.000000
0.475726 0.392107 0.000000
0.524289 0.403858 0.000000
0.572272 0.415580 0.000000
0.619412 0.426968 0.000000
0.668057 0.437804 0.000000
0.715629 0.447825 0.000000
0.762549 0.456794 0.000000
0.808797 0.464265 0.000000
0.857052 0.470202 0.000000
0.904973 0.474771 0.000000
0.952633 0.477510 0.000000
1.000000 0.478460 0.000000
0.000000 0.373817 0.000000
0.053173 0.374751 0.000000
0.106399 0.377665 0.000000
0.159759 0.382356 0.000000
0.213234 0.388757 0.000000
0.263549 0.396672 0.000000
0.314090 0.405941 0.000000
0.364622 0.416391 0.000000
0.415580 0.427728 0.000000
0.463881 0.439572 0.000000
0.512292 0.451724 0.000000
0.560428 0.463881 0.000000
0.607893 0.475726 0.000000
0.657324 0.487086 0.000000
0.705814 0.497509 0.000000
0.753958 0.506871 0.000000
0.801515 0.514736 0.000000
0.851505 0.521050 0.000000
0.901184 0.525797 0.000000
0.950709 0.528671 0.000000
1.000000 0.529656 0.000000
0.000000 0.420995 0.000000
0.051237 0.421942 0.000000
0.102614 0.424915 0.000000
0.154149 0.429677 0.000000
0.205867 0.436171 0.000000
0.254821 0.444210 0.000000
0.304147 0.453637 0.000000
0.353667 0.464227 0.000000
0.403858 0.475711 0.000000
0.451724 0.487708 0.000000
0.500000 0.500000 0.000000
0.548276 0.512292 0.000000
0.596142 0.524289 0.000000
0.646333 0.535773 0.000000
0.695853 0.546363 0.000000
0.745179 0.555790 0.000000
0.794133 0.563829 0.000000
0.845851 0.570323 0.000000
0.897386 0.575085 0.000000
0.948763 0.578058 0.000000
1.000000 0.579005 0.000000
0.000000 0.470344 0.000000
0.049291 0.471329 0.000000
0.098816 0.474203 0.000000
0.148495 0.478950 0.000000
0.198485 0.485264 0.000000
0.246042 0.493129 0.000000
0.294186 0.502491 0.000000
0.342676 0.512914 0.000000
0.392107 0.524274 0.000000
0.439572 0.536119 0.000000
0.487708 0.548276 0.000000
0.536119 0.560428 0.000000
0.584420 0.572272 0.000000
0.635378 0.583609 0.000000
0.685910 0.594059 0.000000
0.736451 0.603328 0.000000
0.786766 0.611243 0.000000
0.840241 0.617644 0.000000
0.893601 0.622335 0.000000
0.946827 0.625249 0.000000
1.000000 0.626183 0.000000
0.000000 0.521540 0.000000
0.047367 0.522490 0.000000
0.095027 0.525229 0.000000
0.142948 0.529798 0.000000
0.191203 0.535735 0.000000
0.237451 0.543206 0.000000
0.284371 0.552175 0.000000
0.331943 0.562196 0.000000
0.380588 0.573032 0.000000
0.427728 0.584420 0.000000
0.475711 0.596142 0.000000
0.524274 0.607893 0.000000
0.573032 0.619412 0.000000
0.624601 0.630426 0.000000
0.676108 0.640604 0.000000
0.727771 0.649601 0.000000
0.779505 0.657332 0.000000
0.834601 0.663548 0.000000
0.889806 0.668128 0.000000
0.944880 0.670954 0.000000
1.000000 0.671852 0.000000
0.000000 0.575570 0.000000
0.045513 0.576463 0.000000
0.091386 0.579093 0.000000
0.137676 0.583421 0.000000
0.184163 0.589140 0.000000
0.229249 0.596345 0.000000
0.274993 0.604836 0.000000
0.321664 0.614337 0.000000
0.369574 0.624601 0.000000
0.416391 0.635378 0.000000
0.464227 0.646333 0.000000
0.512914 0.657324 0.000000
0.562196 0.668057 0.000000
0.614337 0.678336 0.000000
0.666779 0.687826 0.000000
0.719593 0.696209 0.000000
0.772711 0.703429 0.000000
0.829325 0.709227 0.000000
0.886223 0.713493 0.000000
0.943056 0.716122 0.000000
1.000000 0.716975 0.000000
0.000000 0.631334 0.000000
0.043818 0.632148 0.000000
0.088021 0.634554 0.000000
0.132817 0.638509 0.000000
0.177652 0.643755 0.000000
0.221688 0.650396 0.000000
0.266300 0.658119 0.000000
0.312174 0.666779 0.000000
0.359396 0.676108 0.000000
0.405941 0.685910 0.000000
0.453637 0.695853 0.000000
0.502491 0.705814 0.000000
0.552175 0.715629 0.000000
0.604836 0.725007 0.000000
0.658119 0.733700 0.000000
0.711910 0.741345 0.000000
0.766308 0.748014 0.000000
0.824333 0.753334 0.000000
0.882893 0.757206 0.000000
0.941342 0.759613 0.000000
1.000000 0.760382 0.000000
0.000000 0.688462 0.000000
0.042322 0.689110 0.000000
0.085065 0.691290 0.000000
0.128546 0.694681 0.000000
0.171880 0.699312 0.000000
0.215019 0.705158 0.000000
0.258655 0.711910 0.000000
0.303791 0.719593 0.000000
0.350399 0.727771 0.000000
0.396672 0.736451 0.000000
0.444210 0.745179 0.000000
0.493129 0.753958 0.000000
0.543206 0.762549 0.000000
0.596345 0.770751 0.000000
0.650396 0.778312 0.000000
0.705158 0.784981 0.000000
0.760727 0.790787 0.000000
0.819990 0.795408 0.000000
0.879933 0.798872 0.000000
0.939833 0.800966 0.000000
1.000000 0.801670 0.000000
0.000000 0.747088 0.000000
0.041015 0.747651 0.000000
0.082479 0.749387 0.000000
0.124786 0.752198 0.000000
0.166805 0.755942 0.000000
0.209213 0.760727 0.000000
0.251986 0.766308 0.000000
0.296571 0.772711 0.000000
0.342668 0.779505 0.000000
0.388757 0.786766 0.000000
0.436171 0.794133 0.000000
0.485264 0.801515 0.000000
0.535735 0.808797 0.000000
0.589140 0.815837 0.000000
0.643755 0.822348 0.000000
0.699312 0.828120 0.000000
0.755942 0.833195 0.000000
0.816215 0.837093 0.000000
0.877354 0.840025 0.000000
0.938529 0.841711 0.000000
1.000000 0.842337 0.000000
0.000000 0.809235 0.000000
0.039994 0.809621 0.000000
0.080479 0.811059 0.000000
0.121788 0.813185 0.000000
0.162907 0.816215 0.000000
0.204592 0.819990 0.000000
0.246666 0.824333 0.000000
0.290773 0.829325 0.000000
0.336452 0.834601 0.000000
0.382356 0.840241 0.000000
0.429677 0.845851 0.000000
0.478950 0.851505 0.000000
0.529798 0.857052 0.000000
0.583421 0.862324 0.000000
0.638509 0.867183 0.000000
0.694681 0.871454 0.000000
0.752198 0.875214 0.000000
0.813185 0.878212 0.000000
0.875312 0.880456 0.000000
0.937479 0.881821 0.000000
1.000000 0.882277 0.000000
0.000000 0.872609 0.000000
0.039216 0.872904 0.000000
0.079017 0.873840 0.000000
0.119544 0.875312 0.000000
0.159975 0.877354 0.000000
0.201128 0.879933 0.000000
0.242794 0.882893 0.000000
0.286507 0.886223 0.000000
0.331872 0.889806 0.000000
0.377665 0.893601 0.000000
0.424915 0.897386 0.000000
0.474203 0.901184 0.000000
0.525229 0.904973 0.000000
0.579093 0.908614 0.000000
0.634554 0.911979 0.000000
0.691290 0.914935 0.000000
0.749387 0.917521 0.000000
0.811059 0.919521 0.000000
0.873840 0.920983 0.000000
0.936732 0.921869 0.000000
1.000000 0.922169 0.000000
0.000000 0.936109 0.000000
0.038767 0.936250 0.000000
0.078131 0.936732 0.000000
0.118179 0.937479 0.000000
0.158289 0.938529 0.000000
0.199034 0.939833 0.000000
0.240387 0.941342 0.000000
0.283878 0.943056 0.000000
0.329046 0.944880 0.000000
0.374751 0.946827 0.000000
0.421942 0.948763 0.000000
0.471329 0.950709 0.000000
0.522490 0.952633 0.000000
0.576463 0.954487 0.000000
0.632148 0.956182 0.000000
0.689110 0.957678 0.000000
0.747651 0.958985 0.000000
0.809621 0.960006 0.000000
0.872904 0.960784 0.000000
0.936250 0.961233 0.000000
1.000000 0.961403 0.000000
0.000000 1.000000 0.000000
0.038597 1.000000 0.000000
0.077831 1.000000 0.000000
0.117723 1.000000 0.000000
0.157663 1.000000 0.000000
0.198330 1.000000 0.000000
0.239618 1.000000 0.000000
0.283025 1.000000 0.000000
0.328148 1.000000 0.000000
0.373817 1.000000 0.000000
0.420995 1.000000 0.000000
0.470344 1.000000 0.000000
0.521540 1.000000 0.000000
0.575570 1.000000 0.000000
0.631334 1.000000 0.000000
0.688462 1.000000 0.000000
0.747088 1.000000 0.000000
0.809235 1.000000 0.000000
0.872609 1.000000 0.000000
0.936109 1.000000 0.000000
1.000000 1.000000 0.000000
0.000000 0.000000 0.082500
0.063891 0.000000 0.082500
0.127391 0.000000 0.082500
0.190765 0.000000 0.082500
0.252912 0.000000 0.082500
0.311538 0.000000 0.082500
0.368666 0.000000 0.082500
0.424430 0.000000 0.082500
0.478460 0.000000 0.082500
0.529656 0.000000 0.082500
0.579005 0.000000 0.082500
0.626183 0.000000 0.082500
0.671852 0.000000 0.082500
0.716975 0.000000 0.082500
0.760382 0.000000 0.082500
0.801670 0.000000 0.082500
0.842337 0.000000 0.082500
0.882277 0.000000 0.082500
0.922169 0.000000 0.082500
0.961403 0.000000 0.082500
1.000000 0.000000 0.082500
0.000000 0.038597 0.082500
0.063750 0.038767 0.082500
0.127096 0.039216 0.082500
0.190379 0.039994 0.082500
0.252349 0.041015 0.082500
0.310890 0.042322 0.082500
0.367852 0.043818 0.082500
0.423537 0.045513 0.082500
0.477510 0.047367 0.082500
0.528671 0.049291 0.082500
0.578058 0.051237 0.082500
0.625249 0.053173 0.082500
0.670954 0.055120 0.082500
0.716122 0.056944 0.082500
0.759613 0.058658 0.082500
0.800966 0.060167 0.082500
0.841711 0.061471 0.082500
0.881821 0.062521 0.082500
0.921869 0.063268 0.082500
0.961233 0.063750 0.082500
1.000000 0.063891 0.082500
0.000000 0.077831 0.082500
0.063268 0.078131 0.082500
0.126160 0.079017 0.082500
0.188941 0.080479 0.082500
0.250613 0.082479 0.082500
0.308710 0.085065 0.082500
0.365446 0.088021 0.082500
0.420907 0.091386 0.082500
0.474771 0.095027 0.082500
0.525797 0.098816 0.082500
0.575085 0.102614 0.082500
0.622335 0.106399 0.082500
0.668128 0.110194 0.082500
0.713493 0.113777 0.082500
0.757206 0.117107 0.082500
0.798872 0.120067 0.082500
0.840025 0.122646 0.082500
0.880456 0.124688 0.082500
0.920983 0.126160 0.082500
0.960784 0.127096 0.082500
1.000000 0.127391 0.082500
0.000000 0.117723 0.082500
0.062521 0.118179 0.082500
0.124688 0.119544 0.082500
0.186815 0.121788 0.082500
0.247802 0.124786 0.082500
0.305319 0.128546 0.082500
0.361491 0.132817 0.082500
0.416579 0.137676 0.082500
0.470202 0.142948 0.082500
0.521050 0.148495 0.082500
0.570323 0.154149 0.082500
0.617644 0.159759 0.082500
0.663548 0.165399 0.082500
0.709227 0.170675 0.082500
0.753334 0.175667 0.082500
0.795408 0.180010 0.082500
0.837093 0.183785 0.082500
0.878212 0.186815 0.082500
0.919521 0.188941 0.082500
0.960006 0.190379 0.082500
1.000000 0.190765 0.082500
0.000000 0.157663 0.082500
0.061471 0.158289 0.082500
0.122646 0.159975 0.082500
0.183785 0.162907 0.082500
0.244058 0.166805 0.082500
0.300688 0.171880 0.082500
0.356245 0.177652 0.082500
0.410860 0.184163 0.082500
0.464265 0.191203 0.082500
0.514736 0.198485 0.082500
0.563829 0.205867 0.082500
0.611243 0.213234 0.082500
0.657332 0.220495 0.082500
0.703429 0.227289 0.082500
0.748014 0.233692 0.082500
0.790787 0.239273 0.082500
0.833195 0.244058 0.082500
0.875214 0.247802 0.082500
0.917521 0.250613 0.082500
0.958985 0.252349 0.082500
1.000000 0.252912 0.082500
0.000000 0.198330 0.082500
0.060167 0.199034 0.082500
0.120067 0.201128 0.082500
0.180010 0.204592 0.082500
0.239273 0.209213 0.082500
0.294842 0.215019 0.082500
0.349604 0.221688 0.082500
0.403655 0.229249 0.082500
0.456794 0.237451 0.082500
0.506871 0.246042 0.082500
0.555790 0.254821 0.082500
0.603328 0.263549 0.082500
0.649601 0.272229 0.082500
0.696209 0.280407 0.082500
0.741345 0.288090 0.082500
0.784981 0.294842 0.082500
0.828120 0.300688 0.082500
0.871454 0.305319 0.082500
0.914935 0.308710 0.082500
0.957678 0.310890 0.082500
1.000000 0.311538 0.082500
0.000000 0.239618 0.082500
0.058658 0.240387 0.082500
0.117107 0.242794 0.082500
0.175667 0.246666 0.082500
0.233692 0.251986 0.082500
0.288090 0.258655 0.082500
0.341881 0.266300 0.082500
0.395164 0.274993 0.082500
0.447825 0.284371 0.082500
0.497509 0.294186 0.082500
0.546363 0.304147 0.082500
0.594059 0.314090 0.082500
0.640604 0.323892 0.082500
0.687826 0.333221 0.082500
0.733700 0.341881 0.082500
0.778312 0.349604 0.082500
0.822348 0.356245 0.082500
0.867183 0.361491 0.082500
0.911979 0.365446 0.082500
0.956182 0.367852 0.082500
1.000000 0.368666 0.082500
0.000000 0.283025 0.082500
0.056944 0.283878 0.082500
0.113777 0.286507 0.082500
0.170675 0.290773 0.082500
0.227289 0.296571 0.082500
0.280407 0.303791 0.082500
0.333221 0.312174 0.082500
0.385663 0.321664 0.082500
0.437804 0.331943 0.082500
0.487086 0.342676 0.082500
0.535773 0.353667 0.082500
0.583609 0.364622 0.082500
0.630426 0.375399 0.082500
0.678336 0.385663 0.082500
0.725007 0.395164 0.082500
0.770751 0.403655 0.082500
0.815837 0.410860 0.082500
0.862324 0.416579 0.082500
0.908614 0.420907 0.082500
0.954487 0.423537 0.082500
1.000000 0.424430 0.082500
0.000000 0.328148 0.082500
0.055120 0.329046 0.082500
0.110194 0.331872 0.082500
0.165399 0.336452 0.082500
0.220495 0.342668 0.082500
0.272229 0.350399 0.082500
0.323892 0.359396 0.082500
0.375399 0.369574 0.082500
0.426968 0.380588 0.082500
0.475726 0.392107 0.082500
0.524289 0.403858 0.082500
0.572272 0.415580 0.082500
0.619412 0.426968 0.082500
0.668057 0.437804 0.082500
0.715629 0.447825 0.082500
0.762549 0.456794 0.082500
0.808797 0.464265 0.082500
0.857052 0.470202 0.082500
0.904973 0.474771 0.082500
0.952633 0.477510 0.082500
1.000000 0.478460 0.082500
0.000000 0.373817 0.082500
0.053173 0.374751 0.082500
0.106399 0.377665 0.082500
0.159759 0.382356 0.082500
0.213234 0.388757 0.082500
0.263549 0.396672 0.082500
0.314090 0.405941 0.082500
0.364622 0.416391 0.082500
0.415580 0.427728 0.082500
0.463881 0.439572 0.082500
0.512292 0.451724 0.082500
0.560428 0.463881 0.082500
0.607893 0.475726 0.082500
0.657324 0.487086 0.082500
0.705814 0.497509 0.082500
0.753958 0.506871 0.082500
0.801515 0.514736 0.082500
0.851505 0.521050 0.082500
0.901184 0.525797 0.082500
0.950709 0.528671 0.082500
1.000000 0.529656 0.082500
0.000000 0.420995 0.082500
0.051237 0.421942 0.082500
0.102614 0.424915 0.082500
0.154149 0.429677 0.082500
0.205867 0.436171 0.082500
0.254821 0.444210 0.082500
0.304147 0.453637 0.082500
0.353667 0.464227 0.082500
0.403858 0.475711 0.082500
0.451724 0.487708 0.082500
0.500000 0.500000 0.082500
0.548276 0.512292 0.082500
0.596142 0.524289 0.082500
0.646333 0.535773 0.082500
0.695853 0.546363 0.082500
0.745179 0.555790 0.082500
0.794133 0.563829 0.082500
0.845851 0.570323 0.082500
0.897386 0.575085 0.082500
0.948763 0.578058 0.082500
1.000000 0.579005 0.082500
0.000000 0.470344 0.082500
0.049291 0.471329 0.082500
0.098816 0.474203 0.082500
0.148495 0.478950 0.082500
0.198485 0.485264 0.082500
0.246042 0.493129 0.082500
0.294186 0.502491 0.082500
0.342676 0.512914 0.082500
0.392107 0.524274 0.082500
0.439572 0.536119 0.082500
0.487708 0.548276 0.082500
0.536119 0.560428 0.082500
0.584420 0.572272 0.082500
0.635378 0.583609 0.082500
0.685910 0.594059 0.082500
0.736451 0.603328 0.082500
0.786766 0.611243 0.082500
0.840241 0.617644 0.082500
0.893601 0.622335 0.082500
0.946827 0.625249 0.082500
1.000000 0.626183 0.082500
0.000000 0.521540 0.082500
0.047367 0.522490 0.082500
0.095027 0.525229 0.082500
0.142948 0.529798 0.082500
0.191203 0.535735 0.082500
0.237451 0.543206 0.082500
0.284371 0.552175 0.082500
0.331943 0.562196 0.082500
0.380588 0.573032 0.082500
0.427728 0.584420 0.082500
0.475711 0.596142 0.082500
0.524274 0.607893 0.082500
0.573032 0.619412 0.082500
0.624601 0.630426 0.082500
0.676108 0.640604 0.082500
0.727771 0.649601 0.082500
0.779505 0.657332 0.082500
0.834601 0.663548 0.082500
0.889806 0.668128 0.082500
0.944880 0.670954 0.082500
1.000000 0.671852 0.082500
0.000000 0.575570 0.082500
0.045513 0.576463 0.082500
0.091386 0.579093 0.082500
0.137676 0.583421 0.082500
0.184163 0.589140 0.082500
0.229249 0.596345 0.082500
0.274993 0.604836 0.082500
0.321664 0.614337 0.082500
0.369574 0.624601 0.082500
0.416391 0.635378 0.082500
0.464227 0.646333 0.082500
0.512914 0.657324 0.082500
0.562196 0.668057 0.082500
0.614337 0.678336 0.082500
0.666779 0.687826 0.082500
0.719593 0.696209 0.082500
0.772711 0.703429 0.082500
0.829325 0.709227 0.082500
0.886223 0.713493 0.082500
0.943056 0.716122 0.082500
1.000000 0.716975 0.082500
0.000000 0.631334 0.082500
0.043818 0.632148 0.082500
0.088021 0.634554 0.082500
0.132817 0.638509 0.082500