# vtk DataFile Version 2.0
Mesh for Fierro
ASCII 
DATASET UNSTRUCTURED_GRID

POINTS 2205 float
0.000000 0.000000 0.000000
0.536944 0.000000 0.000000
0.894336 0.000000 0.000000
0.923274 0.000000 0.000000
0.935511 0.000000 0.000000
0.947553 0.000000 0.000000
0.956563 0.000000 0.000000
0.963425 0.000000 0.000000
0.968902 0.000000 0.000000
0.973309 0.000000 0.000000
0.977111 0.000000 0.000000
0.980291 0.000000 0.000000
0.982909 0.000000 0.000000
0.985145 0.000000 0.000000
0.987093 0.000000 0.000000
0.988898 0.000000 0.000000
0.990185 0.000000 0.000000
0.991670 0.000000 0.000000
0.994059 0.000000 0.000000
0.997859 0.000000 0.000000
1.000000 0.000000 0.000000
0.000000 0.002141 0.000000
0.581408 0.005479 0.000000
0.896350 0.036806 0.000000
0.899356 0.130247 0.000000
0.919601 0.154213 0.000000
0.929293 0.212113 0.000000
0.935832 0.271555 0.000000
0.939545 0.339713 0.000000
0.941937 0.407514 0.000000
0.944753 0.459511 0.000000
0.947467 0.509934 0.000000
0.950188 0.557048 0.000000
0.952987 0.599565 0.000000
0.957075 0.629387 0.000000
0.961812 0.651340 0.000000
0.966729 0.670741 0.000000
0.972441 0.676259 0.000000
0.979339 0.666003 0.000000
0.987346 0.629400 0.000000
0.994521 0.581408 0.000000
1.000000 0.536944 0.000000
0.000000 0.005941 0.000000
0.629400 0.012654 0.000000
0.887761 0.064685 0.000000
0.873277 0.180601 0.000000
0.906017 0.247756 0.000000
0.912723 0.375527 0.000000
0.913328 0.477975 0.000000
0.912835 0.560137 0.000000
0.905863 0.631246 0.000000
0.901364 0.676711 0.000000
0.890950 0.713031 0.000000
0.880037 0.735087 0.000000
0.874562 0.752153 0.000000
0.880511 0.769223 0.000000
0.888670 0.788767 0.000000
0.897051 0.811618 0.000000
0.904084 0.835948 0.000000
0.915908 0.862767 0.000000
0.935315 0.887761 0.000000
0.963194 0.896350 0.000000
1.000000 0.894336 0.000000
0.000000 0.008330 0.000000
0.666003 0.020661 0.000000
0.862767 0.084092 0.000000
0.870857 0.234126 0.000000
0.890244 0.374861 0.000000
0.886362 0.471843 0.000000
0.880647 0.554244 0.000000
0.859855 0.624182 0.000000
0.832864 0.672814 0.000000
0.807915 0.710538 0.000000
0.771536 0.746929 0.000000
0.739538 0.782863 0.000000
0.719005 0.813164 0.000000
0.717157 0.831087 0.000000
0.720955 0.844568 0.000000
0.727863 0.855932 0.000000
0.739203 0.865015 0.000000
0.765874 0.870857 0.000000
0.819399 0.873277 0.000000
0.869753 0.899356 0.000000
1.000000 0.923274 0.000000
0.000000 0.009815 0.000000
0.676259 0.027559 0.000000
0.835948 0.095916 0.000000
0.865015 0.260797 0.000000
0.856733 0.420409 0.000000
0.854851 0.497516 0.000000
0.840516 0.593233 0.000000
0.787632 0.659725 0.000000
0.746343 0.702247 0.000000
0.706028 0.735082 0.000000
0.668940 0.757870 0.000000
0.646207 0.771149 0.000000
0.622306 0.778210 0.000000
0.601135 0.788719 0.000000
0.586476 0.805063 0.000000
0.577764 0.827700 0.000000
0.579591 0.856733 0.000000
0.625139 0.890244 0.000000
0.752244 0.906017 0.000000
0.845787 0.919601 0.000000
1.000000 0.935511 0.000000
0.000000 0.011102 0.000000
0.670741 0.033271 0.000000
0.811618 0.102949 0.000000
0.855932 0.272137 0.000000
0.827700 0.422236 0.000000
0.827366 0.520183 0.000000
0.802987 0.605206 0.000000
0.740428 0.651155 0.000000
0.693481 0.688280 0.000000
0.645587 0.713650 0.000000
0.591752 0.727786 0.000000
0.542330 0.740431 0.000000
0.497354 0.755536 0.000000
0.475821 0.778390 0.000000
0.466475 0.801581 0.000000
0.479817 0.827366 0.000000
0.502484 0.854851 0.000000
0.528157 0.886362 0.000000
0.624473 0.912723 0.000000
0.787887 0.929293 0.000000
1.000000 0.947553 0.000000
0.000000 0.012907 0.000000
0.651340 0.038188 0.000000
0.788767 0.111330 0.000000
0.844568 0.279045 0.000000
0.805063 0.413524 0.000000
0.801581 0.533525 0.000000
0.757844 0.601172 0.000000
0.698100 0.635206 0.000000
0.642033 0.668119 0.000000
0.589053 0.684598 0.000000
0.537446 0.691982 0.000000
0.494750 0.703874 0.000000
0.456752 0.711172 0.000000
0.424583 0.731563 0.000000
0.398828 0.757844 0.000000
0.394794 0.802987 0.000000
0.406767 0.840516 0.000000
0.445756 0.880647 0.000000
0.522025 0.913328 0.000000
0.728445 0.935832 0.000000
1.000000 0.956563 0.000000
0.000000 0.014855 0.000000
0.629387 0.042925 0.000000
0.769223 0.119489 0.000000
0.831087 0.282843 0.000000
0.788719 0.398865 0.000000
0.778390 0.524179 0.000000
0.731563 0.575417 0.000000
0.671076 0.610483 0.000000
0.612992 0.633351 0.000000
0.560834 0.643159 0.000000
0.508949 0.646526 0.000000
0.462447 0.647818 0.000000
0.421187 0.652325 0.000000
0.389517 0.671076 0.000000
0.364794 0.698100 0.000000
0.348845 0.740428 0.000000
0.340275 0.787632 0.000000
0.375818 0.859855 0.000000
0.439863 0.912835 0.000000
0.660287 0.939545 0.000000
1.000000 0.963425 0.000000
0.000000 0.017091 0.000000
0.599565 0.047013 0.000000
0.752153 0.125438 0.000000
0.813164 0.280995 0.000000
0.778210 0.377694 0.000000
0.755536 0.502646 0.000000
0.711172 0.543248 0.000000
0.652325 0.578813 0.000000
0.594464 0.589996 0.000000
0.543219 0.598347 0.000000
0.495854 0.596154 0.000000
0.452192 0.594960 0.000000
0.410004 0.594464 0.000000
0.366649 0.612992 0.000000
0.331881 0.642033 0.000000
0.311720 0.693481 0.000000
0.297753 0.746343 0.000000
0.327186 0.832864 0.000000
0.368754 0.905863 0.000000
0.592486 0.941937 0.000000
1.000000 0.968902 0.000000
0.000000 0.019709 0.000000
0.557048 0.049812 0.000000
0.735087 0.119963 0.000000
0.782863 0.260462 0.000000
0.771149 0.353793 0.000000
0.740431 0.457670 0.000000
0.703874 0.505250 0.000000
0.647818 0.537553 0.000000
0.594960 0.547808 0.000000
0.543283 0.552311 0.000000
0.494547 0.547244 0.000000
0.447689 0.543283 0.000000
0.401653 0.543219 0.000000
0.356841 0.560834 0.000000
0.315402 0.589053 0.000000
0.286350 0.645587 0.000000
0.264918 0.706028 0.000000
0.289462 0.807915 0.000000
0.323289 0.901364 0.000000
0.540489 0.944753 0.000000
1.000000 0.973309 0.000000
0.000000 0.022889 0.000000
0.509934 0.052533 0.000000
0.713031 0.109050 0.000000
0.746929 0.228464 0.000000
0.757870 0.331060 0.000000
0.727786 0.408248 0.000000
0.691982 0.462554 0.000000
0.646526 0.491051 0.000000
0.596154 0.504146 0.000000
0.547244 0.505453 0.000000
0.500000 0.500000 0.000000
0.452756 0.494547 0.000000
0.403846 0.495854 0.000000
0.353474 0.508949 0.000000
0.308018 0.537446 0.000000
0.272214 0.591752 0.000000
0.242130 0.668940 0.000000
0.253071 0.771536 0.000000
0.286969 0.890950 0.000000
0.490066 0.947467 0.000000
1.000000 0.977111 0.000000
0.000000 0.026691 0.000000
0.459511 0.055247 0.000000
0.676711 0.098636 0.000000
0.710538 0.192085 0.000000
0.735082 0.293972 0.000000
0.713650 0.354413 0.000000
0.684598 0.410947 0.000000
0.643159 0.439166 0.000000
0.598347 0.456781 0.000000
0.552311 0.456717 0.000000
0.505453 0.452756 0.000000
0.456717 0.447689 0.000000
0.405040 0.452192 0.000000
0.352182 0.462447 0.000000
0.296126 0.494750 0.000000
0.259569 0.542330 0.000000
0.228851 0.646207 0.000000
0.217137 0.739538 0.000000
0.264913 0.880037 0.000000
0.442952 0.950188 0.000000
1.000000 0.980291 0.000000
0.000000 0.031098 0.000000
0.407514 0.058063 0.000000
0.631246 0.094137 0.000000
0.672814 0.167136 0.000000
0.702247 0.253657 0.000000
0.688280 0.306519 0.000000
0.668119 0.357967 0.000000
0.633351 0.387008 0.000000
0.589996 0.405536 0.000000
0.547808 0.405040 0.000000
0.504146 0.403846 0.000000
0.456781 0.401653 0.000000
0.405536 0.410004 0.000000
0.347675 0.421187 0.000000
0.288828 0.456752 0.000000
0.244464 0.497354 0.000000
0.221790 0.622306 0.000000
0.186836 0.719005 0.000000
0.247847 0.874562 0.000000
0.400435 0.952987 0.000000
1.000000 0.982909 0.000000
0.000000 0.036575 0.000000
0.339713 0.060455 0.000000
0.560137 0.087165 0.000000
0.624182 0.140145 0.000000
0.659725 0.212368 0.000000
0.651155 0.259572 0.000000
0.635206 0.301900 0.000000
0.610483 0.328924 0.000000
0.578813 0.347675 0.000000
0.537553 0.352182 0.000000
0.491051 0.353474 0.000000
0.439166 0.356841 0.000000
0.387008 0.366649 0.000000
0.328924 0.389517 0.000000
0.268437 0.424583 0.000000
0.221610 0.475821 0.000000
0.211281 0.601135 0.000000
0.168913 0.717157 0.000000
0.230777 0.880511 0.000000
0.370613 0.957075 0.000000
1.000000 0.985145 0.000000
0.000000 0.043437 0.000000
0.271555 0.064168 0.000000
0.477975 0.086672 0.000000
0.554244 0.119353 0.000000
0.593233 0.159484 0.000000
0.605206 0.197013 0.000000
0.601172 0.242156 0.000000
0.575417 0.268437 0.000000
0.543248 0.288828 0.000000
0.505250 0.296126 0.000000
0.462554 0.308018 0.000000
0.410947 0.315402 0.000000
0.357967 0.331881 0.000000
0.301900 0.364794 0.000000
0.242156 0.398828 0.000000
0.198419 0.466475 0.000000
0.194937 0.586476 0.000000
0.155432 0.720955 0.000000
0.211233 0.888670 0.000000
0.348660 0.961812 0.000000
1.000000 0.987093 0.000000
0.000000 0.052447 0.000000
0.212113 0.070707 0.000000
0.375527 0.087277 0.000000
0.471843 0.113638 0.000000
0.497516 0.145149 0.000000
0.520183 0.172634 0.000000
0.533525 0.198419 0.000000
0.524179 0.221610 0.000000
0.502646 0.244464 0.000000
0.457670 0.259569 0.000000
0.408248 0.272214 0.000000
0.354413 0.286350 0.000000
0.306519 0.311720 0.000000
0.259572 0.348845 0.000000
0.197013 0.394794 0.000000
0.172634 0.479817 0.000000
0.172300 0.577764 0.000000
0.144068 0.727863 0.000000
0.188382 0.897051 0.000000
0.329259 0.966729 0.000000
1.000000 0.988898 0.000000
0.000000 0.064489 0.000000
0.154213 0.080399 0.000000
0.247756 0.093983 0.000000
0.374861 0.109756 0.000000
0.420409 0.143267 0.000000
0.422236 0.172300 0.000000
0.413524 0.194937 0.000000
0.398865 0.211281 0.000000
0.377694 0.221790 0.000000
0.353793 0.228851 0.000000
0.331060 0.242130 0.000000
0.293972 0.264918 0.000000
0.253657 0.297753 0.000000
0.212368 0.340275 0.000000
0.159484 0.406767 0.000000
0.145149 0.502484 0.000000
0.143267 0.579591 0.000000
0.134985 0.739203 0.000000
0.164052 0.904084 0.000000
0.323741 0.972441 0.000000
1.000000 0.990185 0.000000
0.000000 0.076726 0.000000
0.130247 0.100644 0.000000
0.180601 0.126723 0.000000
0.234126 0.129143 0.000000
0.260797 0.134985 0.000000
0.272137 0.144068 0.000000
0.279045 0.155432 0.000000
0.282843 0.168913 0.000000
0.280995 0.186836 0.000000
[...]
POINT_DATA 2205 
VECTORS pos float 
0.000000 0.000000 0.000000
0.536944 0.000000 0.000000
0.894336 0.000000 0.000000
0.923274 0.000000 0.000000
0.935511 0.000000 0.000000
0.947553 0.000000 0.000000
0.956563 0.000000 0.000000
0.963425 0.000000 0.000000
0.968902 0.000000 0.000000
0.973309 0.000000 0.000000
0.977111 0.000000 0.000000
0.980291 0.000000 0.000000
0.982909 0.000000 0.000000
0.985145 0.000000 0.000000
0.987093 0.000000 0.000000
0.988898 0.000000 0.000000
0.990185 0.000000 0.000000
0.991670 0.000000 0.000000
0.994059 0.000000 0.000000
0.997859 0.000000 0.000000
1.000000 0.000000 0.000000
0.000000 0.002141 0.000000
0.581408 0.005479 0.000000
0.896350 0.036806 0.000000
0.899356 0.130247 0.000000
0.919601 0.154213 0.000000
0.929293 0.212113 0.000000
0.935832 0.271555 0.000000
0.939545 0.339713 0.000000
0.941937 0.407514 0.000000
0.944753 0.459511 0.000000
0.947467 0.509934 0.000000
0.950188 0.557048 0.000000
0.952987 0.599565 0.000000
0.957075 0.629387 0.000000
0.961812 0.651340 0.000000
0.966729 0.670741 0.000000
0.972441 0.676259 0.000000
0.979339 0.666003 0.000000
0.987346 0.629400 0.000000
0.994521 0.581408 0.000000
1.000000 0.536944 0.000000
0.000000 0.005941 0.000000
0.629400 0.012654 0.000000
0.887761 0.064685 0.000000
0.873277 0.180601 0.000000
0.906017 0.247756 0.000000
0.912723 0.375527 0.000000
0.913328 0.477975 0.000000
0.912835 0.560137 0.000000
0.905863 0.631246 0.000000
0.901364 0.676711 0.000000
0.890950 0.713031 0.000000
0.880037 0.735087 0.000000
0.874562 0.752153 0.000000
0.880511 0.769223 0.000000
0.888670 0.788767 0.000000
0.897051 0.811618 0.000000
0.904084 0.835948 0.000000
0.915908 0.862767 0.000000
0.935315 0.887761 0.000000
0.963194 0.896350 0.000000
1.000000 0.894336 0.000000
0.000000 0.008330 0.000000
0.666003 0.020661 0.000000
0.862767 0.084092 0.000000
0.870857 0.234126 0.000000
0.890244 0.374861 0.000000
0.886362 0.471843 0.000000
0.880647 0.554244 0.000000
0.859855 0.624182 0.000000
0.832864 0.672814 0.000000
0.807915 0.710538 0.000000
0.771536 0.746929 0.000000
0.739538 0.782863 0.000000
0.719005 0.813164 0.000000
0.717157 0.831087 0.000000
0.720955 0.844568 0.000000
0.727863 0.855932 0.000000
0.739203 0.865015 0.000000
0.765874 0.870857 0.000000
0.819399 0.873277 0.000000
0.869753 0.899356 0.000000
1.000000 0.923274 0.000000
0.000000 0.009815 0.000000
0.676259 0.027559 0.000000
0.835948 0.095916 0.000000
0.865015 0.260797 0.000000
0.856733 0.420409 0.000000
0.854851 0.497516 0.000000
0.840516 0.593233 0.000000
0.787632 0.659725 0.000000
0.746343 0.702247 0.000000
0.706028 0.735082 0.000000
0.668940 0.757870 0.000000
0.646207 0.771149 0.000000
0.622306 0.778210 0.000000
0.601135 0.788719 0.000000
0.586476 0.805063 0.000000
0.577764 0.827700 0.000000
0.579591 0.856733 0.000000
0.625139 0.890244 0.000000
0.752244 0.906017 0.000000
0.845787 0.919601 0.000000
1.000000 0.935511 0.000000
0.000000 0.011102 0.000000
0.670741 0.033271 0.000000
0.811618 0.102949 0.000000
0.855932 0.272137 0.000000
0.827700 0.422236 0.000000
0.827366 0.520183 0.000000
0.802987 0.605206 0.000000
0.740428 0.651155 0.000000
0.693481 0.688280 0.000000
0.645587 0.713650 0.000000
0.591752 0.727786 0.000000
0.542330 0.740431 0.000000
0.497354 0.755536 0.000000
0.475821 0.778390 0.000000
0.466475 0.801581 0.000000
0.479817 0.827366 0.000000
0.502484 0.854851 0.000000
0.528157 0.886362 0.000000
0.624473 0.912723 0.000000
0.787887 0.929293 0.000000
1.000000 0.947553 0.000000
0.000000 0.012907 0.000000
0.651340 0.038188 0.000000
0.788767 0.111330 0.000000
0.844568 0.279045 0.000000
0.805063 0.413524 0.000000
0.801581 0.533525 0.000000
0.757844 0.601172 0.000000
0.698100 0.635206 0.000000
0.642033 0.668119 0.000000
0.589053 0.684598 0.000000
0.537446 0.691982 0.000000
0.494750 0.703874 0.000000
0.456752 0.711172 0.000000
0.424583 0.731563 0.000000
0.398828 0.757844 0.000000
0.394794 0.802987 0.000000
0.406767 0.840516 0.000000
0.445756 0.880647 0.000000
0.522025 0.913328 0.000000
0.728445 0.935832 0.000000
1.000000 0.956563 0.000000
0.000000 0.014855 0.000000
0.629387 0.042925 0.000000
0.769223 0.119489 0.000000
0.831087 0.282843 0.000000
0.788719 0.398865 0.000000
0.778390 0.524179 0.000000
0.731563 0.575417 0.000000
0.671076 0.610483 0.000000
0.612992 0.633351 0.000000
0.560834 0.643159 0.000000
0.508949 0.646526 0.000000
0.462447 0.647818 0.000000
0.421187 0.652325 0.000000
0.389517 0.671076 0.000000
0.364794 0.698100 0.000000
0.348845 0.740428 0.000000
0.340275 0.787632 0.000000
0.375818 0.859855 0.000000
0.439863 0.912835 0.000000
0.660287 0.939545 0.000000
1.000000 0.963425 0.000000
0.000000 0.017091 0.000000
0.599565 0.047013 0.000000
0.752153 0.125438 0.000000
0.813164 0.280995 0.000000
0.778210 0.377694 0.000000
0.755536 0.502646 0.000000
0.711172 0.543248 0.000000
0.652325 0.578813 0.000000
0.594464 0.589996 0.000000
0.543219 0.598347 0.000000
0.495854 0.596154 0.000000
0.452192 0.594960 0.000000
0.410004 0.594464 0.000000
0.366649 0.612992 0.000000
0.331881 0.642033 0.000000
0.311720 0.693481 0.000000
0.297753 0.746343 0.000000
0.327186 0.832864 0.000000
0.368754 0.905863 0.000000
0.592486 0.941937 0.000000
1.000000 0.968902 0.000000
0.000000 0.019709 0.000000
0.557048 0.049812 0.000000
0.735087 0.119963 0.000000
0.782863 0.260462 0.000000
0.771149 0.353793 0.000000
0.740431 0.457670 0.000000
0.703874 0.505250 0.000000
0.647818 0.537553 0.000000
0.594960 0.547808 0.000000
0.543283 0.552311 0.000000
0.494547 0.547244 0.000000
0.447689 0.543283 0.000000
0.401653 0.543219 0.000000
0.356841 0.560834 0.000000
0.315402 0.589053 0.000000
0.286350 0.645587 0.000000
0.264918 0.706028 0.000000
0.289462 0.807915 0.000000
0.323289 0.901364 0.000000
0.540489 0.944753 0.000000
1.000000 0.973309 0.000000
0.000000 0.022889 0.000000
0.509934 0.052533 0.000000
0.713031 0.109050 0.000000
0.746929 0.228464 0.000000
0.757870 0.331060 0.000000
0.727786 0.408248 0.000000
0.691982 0.462554 0.000000
0.646526 0.491051 0.000000
0.596154 0.504146 0.000000
0.547244 0.505453 0.000000
0.500000 0.500000 0.000000
0.452756 0.494547 0.000000
0.403846 0.495854 0.000000
0.353474 0.508949 0.000000
0.308018 0.537446 0.000000
0.272214 0.591752 0.000000
0.242130 0.668940 0.000000
0.253071 0.771536 0.000000
0.286969 0.890950 0.000000
0.490066 0.947467 0.000000
1.000000 0.977111 0.000000
0.000000 0.026691 0.000000
0.459511 0.055247 0.000000
0.676711 0.098636 0.000000
0.710538 0.192085 0.000000
0.735082 0.293972 0.000000
0.713650 0.354413 0.000000
0.684598 0.410947 0.000000
0.643159 0.439166 0.000000
0.598347 0.456781 0.000000
0.552311 0.456717 0.000000
0.505453 0.452756 0.000000
0.456717 0.447689 0.000000
0.405040 0.452192 0.000000
0.352182 0.462447 0.000000
0.296126 0.494750 0.000000
0.259569 0.542330 0.000000
0.228851 0.646207 0.000000
0.217137 0.739538 0.000000
0.264913 0.880037 0.000000
0.442952 0.950188 0.000000
1.000000 0.980291 0.000000
0.000000 0.031098 0.000000
0.407514 0.058063 0.000000
0.631246 0.094137 0.000000
0.672814 0.167136 0.000000
0.702247 0.253657 0.000000
0.688280 0.306519 0.000000
0.668119 0.357967 0.000000
0.633351 0.387008 0.000000
0.589996 0.405536 0.000000
0.547808 0.405040 0.000000
0.504146 0.403846 0.000000
0.456781 0.401653 0.000000
0.405536 0.410004 0.000000
0.347675 0.421187 0.000000
0.288828 0.456752 0.000000
0.244464 0.497354 0.000000
0.221790 0.622306 0.000000
0.186836 0.719005 0.000000
0.247847 0.874562 0.000000
0.400435 0.952987 0.000000
1.000000 0.982909 0.000000
0.000000 0.036575 0.000000
0.339713 0.060455 0.000000
0.560137 0.087165 0.000000
0.624182 0.140145 0.000000
0.659725 0.212368 0.000000
0.651155 0.259572 0.000000
0.635206 0.301900 0.000000
0.610483 0.328924 0.000000
0.578813 0.347675 0.000000
0.537553 0.352182 0.000000
0.491051 0.353474 0.000000
0.439166 0.356841 0.000000
0.387008 0.366649 0.000000
0.328924 0.389517 0.000000
0.268437 0.424583 0.000000
0.221610 0.475821 0.000000
0.211281 0.601135 0.000000
0.168913 0.717157 0.000000
0.230777 0.880511 0.000000
0.370613 0.957075 0.000000
1.000000 0.985145 0.000000
0.000000 0.043437 0.000000
0.271555 0.064168 0.000000
0.477975 0.086672 0.000000
0.554244 0.119353 0.000000
0.593233 0.159484 0.000000
0.605206 0.197013 0.000000
0.601172 0.242156 0.000000
0.575417 0.268437 0.000000
0.543248 0.288828 0.000000
0.505250 0.296126 0.000000
0.462554 0.308018 0.000000
0.410947 0.315402 0.000000
0.357967 0.331881 0.000000
0.301900 0.364794 0.000000
0.242156 0.398828 0.000000
0.198419 0.466475 0.000000
0.194937 0.586476 0.000000
0.155432 0.720955 0.000000
0.211233 0.888670 0.000000
0.348660 0.961812 0.000000
1.000000 0.987093 0.000000
0.000000 0.052447 0.000000
0.212113 0.070707 0.000000
0.375527 0.087277 0.000000
0.471843 0.113638 0.000000
0.497516 0.145149 0.000000
0.520183 0.172634 0.000000
0.533525 0.198419 0.000000
0.524179 0.221610 0.000000
0.502646 0.244464 0.000000
0.457670 0.259569 0.000000
0.408248 0.272214 0.000000
0.354413 0.286350 0.000000
0.306519 0.311720 0.000000
0.259572 0.348845 0.000000
0.197013 0.394794 0.000000
0.172634 0.479817 0.000000
0.172300 0.577764 0.000000
0.144068 0.727863 0.000000
0.188382 0.897051 0.000000
0.329259 0.966729 0.000000
1.000000 0.988898 0.000000
0.000000 0.064489 0.000000
0.154213 0.080399 0.000000
0.247756 0.093983 0.000000
0.374861 0.109756 0.000000
0.420409 0.143267 0.000000
0.422236 0.172300 0.000000
0.413524 0.194937 0.000000
0.398865 0.211281 0.000000
0.377694 0.221790 0.000000
0.353793 0.228851 0.000000
0.331060 0.242130 0.000000
0.293972 0.264918 0.000000
0.253657 0.297753 0.000000
0.212368 0.340275 0.000000
0.159484 0.406767 0.000000
0.145149 0.502484 0.000000
0.143267 0.579591 0.000000
0.134985 0.739203 0.000000
0.164052 0.904084 0.000000
0.323741 0.972441 0.000000
1.000000 0.990185 0.000000
0.000000 0.076726 0.000000
0.130247 0.100644 0.000000
0.180601 0.126723 0.000000
0.234126 0.129143 0.000000
0.260797 0.134985 0.000000
0.272137 0.144068 0.000000
0.279045 0.155432 0.000000
0.282843 0.168913 0.000000
0.280995 0.186836 0.000000
0.260462 0.217137 0.000000
0.228464 0.253071 0.000000
0.192085 0.289462 0.000000
0.167136 0.327186 0.000000
0.140145 0.375818 0.000000
0.119353 0.445756 0.000000
0.113638 0.528157 0.000000
0.109756 0.625139 0.000000
0.129143 0.765874 0.000000
0.137233 0.915908 0.000000
0.333997 0.979339 0.000000
1.000000 0.991670 0.000000
0.000000 0.105664 0.000000
0.036806 0.103650 0.000000
0.064685 0.112239 0.000000
0.084092 0.137233 0.000000
0.095916 0.164052 0.000000
0.102949 0.188382 0.000000
0.111330 0.211233 0.000000
0.119489 0.230777 0.000000
0.125438 0.247847 0.000000
0.119963 0.264913 0.000000
0.109050 0.286969 0.000000
0.098636 0.323289 0.000000
0.094137 0.368754 0.000000
0.087165 0.439863 0.000000
0.086672 0.522025 0.000000
0.087277 0.624473 0.000000
0.093983 0.752244 0.000000
0.126723 0.819399 0.000000
0.112239 0.935315 0.000000
0.370600 0.987346 0.000000
1.000000 0.994059 0.000000
0.000000 0.463056 0.000000
0.005479 0.418592 0.000000
0.012654 0.370600 0.000000
0.020661 0.333997 0.000000
0.027559 0.323741 0.000000
0.033271 0.329259 0.000000
0.038188 0.348660 0.000000
0.042925 0.370613 0.000000
0.047013 0.400435 0.000000
0.049812 0.442952 0.000000
0.052533 0.490066 0.000000
0.055247 0.540489 0.000000
0.058063 0.592486 0.000000
0.060455 0.660287 0.000000
0.064168 0.728445 0.000000
0.070707 0.787887 0.000000
0.080399 0.845787 0.000000
0.100644 0.869753 0.000000
0.103650 0.963194 0.000000
0.418592 0.994521 0.000000
1.000000 0.997859 0.000000
0.000000 1.000000 0.000000
0.002141 1.000000 0.000000
0.005941 1.000000 0.000000
0.008330 1.000000 0.000000
0.009815 1.000000 0.000000
0.011102 1.000000 0.000000
0.012907 1.000000 0.000000
0.014855 1.000000 0.000000
0.017091 1.000000 0.000000
0.019709 1.000000 0.000000
0.022889 1.000000 0.000000
0.026691 1.000000 0.000000
0.031098 1.000000 0.000000
0.036575 1.000000 0.000000
0.043437 1.000000 0.000000
0.052447 1.000000 0.000000
0.064489 1.000000 0.000000
0.076726 1.000000 0.000000
0.105664 1.000000 0.000000
0.463056 1.000000 0.000000
1.000000 1.000000 0.000000
0.000000 0.000000 0.082500
0.536944 0.000000 0.082500
0.894336 0.000000 0.082500
0.923274 0.000000 0.082500
0.935511 0.000000 0.082500
0.947553 0.000000 0.082500
0.956563 0.000000 0.082500
0.963425 0.000000 0.082500
0.968902 0.000000 0.082500
0.973309 0.000000 0.082500
0.977111 0.000000 0.082500
0.980291 0.000000 0.082500
0.982909 0.000000 0.082500
0.985145 0.000000 0.082500
0.987093 0.000000 0.082500
0.988898 0.000000 0.082500
0.990185 0.000000 0.082500
0.991670 0.000000 0.082500
0.994059 0.000000 0.082500
0.997859 0.000000 0.082500
1.000000 0.000000 0.082500
0.000000 0.002141 0.082500
0.581408 0.005479 0.082500
0.896350 0.036806 0.082500
0.899356 0.130247 0.082500
0.919601 0.154213 0.082500
0.929293 0.212113 0.082500
0.935832 0.271555 0.082500
0.939545 0.339713 0.082500
0.941937 0.407514 0.082500
0.944753 0.459511 0.082500
0.947467 0.509934 0.082500
0.950188 0.557048 0.082500
0.952987 0.599565 0.082500
0.957075 0.629387 0.082500
0.961812 0.651340 0.082500
0.966729 0.670741 0.082500
0.972441 0.676259 0.082500
0.979339 0.666003 0.082500
0.987346 0.629400 0.082500
0.994521 0.581408 0.082500
1.000000 0.536944 0.082500
0.000000 0.005941 0.082500
0.629400 0.012654 0.082500
0.887761 0.064685 0.082500
0.873277 0.180601 0.082500
0.906017 0.247756 0.082500
0.912723 0.375527 0.082500
0.913328 0.477975 0.082500
0.912835 0.560137 0.082500
0.905863 0.631246 0.082500
0.901364 0.676711 0.082500
0.890950 0.713031 0.082500
0.880037 0.735087 0.082500
0.874562 0.752153 0.082500
0.880511 0.769223 0.082500
0.888670 0.788767 0.082500
0.897051 0.811618 0.082500
0.904084 0.835948 0.082500
0.915908 0.862767 0.082500
0.935315 0.887761 0.082500
0.963194 0.896350 0.082500
1.000000 0.894336 0.082500
0.000000 0.008330 0.082500
0.666003 0.020661 0.082500
0.862767 0.084092 0.082500
0.870857 0.234126 0.082500
0.890244 0.374861 0.082500
0.886362 0.471843 0.082500
0.880647 0.554244 0.082500
0.859855 0.624182 0.082500
0.832864 0.672814 0.082500
0.807915 0.710538 0.082500
0.771536 0.746929 0.082500
0.739538 0.782863 0.082500
0.719005 0.813164 0.082500
0.717157 0.831087 0.082500
0.720955 0.844568 0.082500
0.727863 0.855932 0.082500
0.739203 0.865015 0.082500
0.765874 0.870857 0.082500
0.819399 0.873277 0.082500
0.869753 0.899356 0.082500
1.000000 0.923274 0.082500
0.000000 0.009815 0.082500
0.676259 0.027559 0.082500
0.835948 0.095916 0.082500
0.865015 0.260797 0.082500
0.856733 0.420409 0.082500
0.854851 0.497516 0.082500
0.840516 0.593233 0.082500
0.787632 0.659725 0.082500
0.746343 0.702247 0.082500
0.706028 0.735082 0.082500
0.668940 0.757870 0.082500
0.646207 0.771149 0.082500
0.622306 0.778210 0.082500
0.601135 0.788719 0.082500
0.586476 0.805063 0.082500
0.577764 0.827700 0.082500
0.579591 0.856733 0.082500
0.625139 0.890244 0.082500
0.752244 0.906017 0.082500
0.845787 0.919601 0.082500
1.000000 0.935511 0.082500
0.000000 0.011102 0.082500
0.670741 0.033271 0.082500
0.811618 0.102949 0.082500
0.855932 0.272137 0.082500
0.827700 0.422236 0.082500
0.827366 0.520183 0.082500
0.802987 0.605206 0.082500
0.740428 0.651155 0.082500
0.693481 0.688280 0.082500
0.645587 0.713650 0.082500
0.591752 0.727786 0.082500
0.542330 0.740431 0.082500
0.497354 0.755536 0.082500
0.475821 0.778390 0.082500
0.466475 0.801581 0.082500
0.479817 0.827366 0.082500
0.502484 0.854851 0.082500
0.528157 0.886362 0.082500
0.624473 0.912723 0.082500
0.787887 0.929293 0.082500
1.000000 0.947553 0.082500
0.000000 0.012907 0.082500
0.651340 0.038188 0.082500
0.788767 0.111330 0.082500
0.844568 0.279045 0.082500
0.805063 0.413524 0.082500
0.801581 0.533525 0.082500
0.757844 0.601172 0.082500
0.698100 0.635206 0.082500
0.642033 0.668119 0.082500
0.589053 0.684598 0.082500
0.537446 0.691982 0.082500
0.494750 0.703874 0.082500
0.456752 0.711172 0.082500
0.424583 0.731563 0.082500
0.398828 0.757844 0.082500
0.394794 0.802987 0.082500
0.406767 0.840516 0.082500
0.445756 0.880647 0.082500
0.522025 0.913328 0.082500
0.728445 0.935832 0.082500
1.000000 0.956563 0.082500
0.000000 0.014855 0.082500
0.629387 0.042925 0.082500
0.769223 0.119489 0.082500
0.831087 0.282843 0.082500
0.788719 0.398865 0.082500
0.778390 0.524179 0.082500
0.731563 0.575417 0.082500
0.671076 0.610483 0.082500
0.612992 0.633351 0.082500
0.560834 0.643159 0.082500
0.508949 0.646526 0.082500
0.462447 0.647818 0.082500
0.421187 0.652325 0.082500
0.389517 0.671076 0.082500
0.364794 0.698100 0.082500
0.348845 0.740428 0.082500
0.340275 0.787632 0.082500
0.375818 0.859855 0.082500
0.439863 0.912835 0.082500
0.660287 0.939545 0.082500
1.000000 0.963425 0.082500
0.000000 0.017091 0.082500
0.599565 0.047013 0.082500
0.752153 0.125438 0.082500
0.813164 0.280995 0.082500
0.778210 0.377694 0.082500
0.755536 0.502646 0.082500
0.711172 0.543248 0.082500
0.652325 0.578813 0.082500
0.594464 0.589996 0.082500
0.543219 0.598347 0.082500
0.495854 0.596154 0.082500
0.452192 0.594960 0.082500
0.410004 0.594464 0.082500
0.366649 0.612992 0.082500
0.331881 0.642033 0.082500
0.311720 0.693481 0.082500
0.297753 0.746343 0.082500
0.327186 0.832864 0.082500
0.368754 0.905863 0.082500
0.592486 0.941937 0.082500
1.000000 0.968902 0.082500
0.000000 0.019709 0.082500
0.557048 0.049812 0.082500
0.735087 0.119963 0.082500
0.782863 0.260462 0.082500
0.771149 0.353793 0.082500
0.740431 0.457670 0.082500
0.703874 0.505250 0.082500
0.647818 0.537553 0.082500
0.594960 0.547808 0.082500
0.543283 0.552311 0.082500
0.494547 0.547244 0.082500
0.447689 0.543283 0.082500
0.401653 0.543219 0.082500
0.356841 0.560834 0.082500
0.315402 0.589053 0.082500
0.286350 0.645587 0.082500
0.264918 0.706028 0.082500
0.289462 0.807915 0.082500
0.323289 0.901364 0.082500
0.540489 0.944753 0.082500
1.000000 0.973309 0.082500
0.000000 0.022889 0.082500
0.509934 0.052533 0.082500
0.713031 0.109050 0.082500
0.746929 0.228464 0.082500
0.757870 0.331060 0.082500
0.727786 0.408248 0.082500
0.691982 0.462554 0.082500
0.646526 0.491051 0.082500
0.596154 0.504146 0.082500
0.547244 0.505453 0.082500
0.500000 0.500000 0.082500
0.452756 0.494547 0.082500
0.403846 0.495854 0.082500
0.353474 0.508949 0.082500
0.308018 0.537446 0.082500
0.272214 0.591752 0.082500
0.242130 0.668940 0.082500
0.253071 0.771536 0.082500
0.286969 0.890950 0.082500
0.490066 0.947467 0.082500
1.000000 0.977111 0.082500
0.000000 0.026691 0.082500
0.459511 0.055247 0.082500
0.676711 0.098636 0.082500
0.710538 0.192085 0.082500
0.735082 0.293972 0.082500
0.713650 0.354413 0.082500
0.684598 0.410947 0.082500
0.643159 0.439166 0.082500
0.598347 0.456781 0.082500
0.552311 0.456717 0.082500
0.505453 0.452756 0.082500
0.456717 0.447689 0.082500
0.405040 0.452192 0.082500
0.352182 0.462447 0.082500
0.296126 0.494750 0.082500
0.259569 0.542330 0.082500
0.228851 0.646207 0.082500
0.217137 0.739538 0.082500
0.264913 0.880037 0.082500
0.442952 0.950188 0.082500
1.000000 0.980291 0.082500
0.000000 0.031098 0.082500
0.407514 0.058063 0.082500
0.631246 0.094137 0.082500
0.672814 0.167136 0.082500
0.702247 0.253657 0.082500
0.688280 0.306519 0.082500
0.668119 0.357967 0.082500
0.633351 0.387008 0.082500
0.589996 0.405536 0.082500
0.547808 0.405040 0.082500
0.504146 0.403846 0.082500
0.456781 0.401653 0.082500
0.405536 0.410004 0.082500
0.347675 0.421187 0.082500
0.288828 0.456752 0.082500
0.244464 0.497354 0.082500
0.221790 0.622306 0.082500
0.186836 0.719005 0.082500
0.247847 0.874562 0.082500
0.400435 0.952987 0.082500
1.000000 0.982909 0.082500
0.000000 0.036575 0.082500
0.339713 0.060455 0.082500
0.560137 0.087165 0.082500
0.624182 0.140145 0.082500
0.659725 0.212368 0.082500
0.651155 0.259572 0.082500
0.635206 0.301900 0.082500
0.610483 0.328924 0.082500
0.578813 0.347675 0.082500
0.537553 0.352182 0.082500
0.491051 0.353474 0.082500
0.439166 0.356841 0.082500
0.387008 0.366649 0.082500
0.328924 0.389517 0.082500
0.268437 0.424583 0.082500
0.221610 0.475821 0.082500
0.211281 0.601135 0.082500
0.168913 0.717157 0.082500
0.230777 0.880511 0.082500
0.370613 0.957075 0.082500
1.000000 0.985145 0.082500
0.000000 0.043437 0.082500
0.271555 0.064168 0.082500
0.477975 0.086672 0.082500
0.554244 0.119353 0.082500