# vtk DataFile Version 2.0
Mesh for Fierro
ASCII 
DATASET UNSTRUCTURED_GRID

POINTS 2205 float
0.000000 0.000000 0.000000
0.093116 0.000000 0.000000
0.182894 0.000000 0.000000
0.269169 0.000000 0.000000
0.349237 0.000000 0.000000
0.420135 0.000000 0.000000
0.484544 0.000000 0.000000
0.542151 0.000000 0.000000
0.594583 0.000000 0.000000
0.642993 0.000000 0.000000
0.687401 0.000000 0.000000
0.727107 0.000000 0.000000
0.764122 0.000000 0.000000
0.798821 0.000000 0.000000
0.831066 0.000000 0.000000
0.861652 0.000000 0.000000
0.890637 0.000000 0.000000
0.919505 0.000000 0.000000
0.946514 0.000000 0.000000
0.973502 0.000000 0.000000
1.000000 0.000000 0.000000
0.000000 0.026498 0.000000
0.092716 0.026984 0.000000
0.182187 0.028294 0.000000
0.267975 0.030306 0.000000
0.347902 0.032702 0.000000
0.418592 0.036407 0.000000
0.482820 0.040533 0.000000
0.540182 0.044952 0.000000
0.592530 0.049757 0.000000
0.640772 0.054702 0.000000
0.685094 0.059732 0.000000
0.724829 0.064858 0.000000
0.761808 0.070047 0.000000
0.796535 0.074846 0.000000
0.828838 0.079263 0.000000
0.859735 0.083249 0.000000
0.888959 0.086573 0.000000
0.918106 0.089402 0.000000
0.945613 0.091431 0.000000
0.973016 0.092716 0.000000
1.000000 0.093116 0.000000
0.000000 0.053486 0.000000
0.091431 0.054387 0.000000
0.179650 0.056388 0.000000
0.264409 0.060426 0.000000
0.343558 0.065926 0.000000
0.413503 0.073083 0.000000
0.477148 0.080982 0.000000
0.533955 0.089564 0.000000
0.585821 0.098792 0.000000
0.633787 0.108422 0.000000
0.677978 0.118292 0.000000
0.717721 0.128127 0.000000
0.754779 0.138246 0.000000
0.789972 0.147619 0.000000
0.822863 0.156114 0.000000
0.854419 0.163751 0.000000
0.884857 0.170385 0.000000
0.914381 0.175876 0.000000
0.943612 0.179650 0.000000
0.971706 0.182187 0.000000
1.000000 0.182894 0.000000
0.000000 0.080495 0.000000
0.089402 0.081894 0.000000
0.175876 0.085619 0.000000
0.258936 0.091835 0.000000
0.336780 0.099119 0.000000
0.405352 0.109229 0.000000
0.467910 0.120739 0.000000
0.523942 0.133377 0.000000
0.575326 0.146841 0.000000
0.622743 0.160904 0.000000
0.666618 0.175475 0.000000
0.706350 0.189928 0.000000
0.743323 0.204525 0.000000
0.779079 0.218069 0.000000
0.812823 0.230488 0.000000
0.845419 0.241526 0.000000
0.877309 0.251099 0.000000
0.908165 0.258936 0.000000
0.939574 0.264409 0.000000
0.969694 0.267975 0.000000
1.000000 0.269169 0.000000
0.000000 0.109363 0.000000
0.086573 0.111041 0.000000
0.170385 0.115143 0.000000
0.251099 0.122691 0.000000
0.326980 0.132499 0.000000
0.393590 0.145511 0.000000
0.454766 0.160248 0.000000
0.510010 0.176497 0.000000
0.560942 0.193921 0.000000
0.607644 0.212085 0.000000
0.651069 0.230841 0.000000
0.690971 0.249427 0.000000
0.728197 0.268066 0.000000
0.764817 0.285166 0.000000
0.799779 0.300981 0.000000
0.834175 0.314968 0.000000
0.867501 0.326980 0.000000
0.900881 0.336780 0.000000
0.934074 0.343558 0.000000
0.967298 0.347902 0.000000
1.000000 0.349237 0.000000
0.000000 0.138348 0.000000
0.083249 0.140265 0.000000
0.163751 0.145581 0.000000
0.241526 0.154581 0.000000
0.314968 0.165825 0.000000
0.379210 0.180892 0.000000
0.438608 0.198226 0.000000
0.492888 0.217325 0.000000
0.543260 0.237677 0.000000
0.589059 0.258799 0.000000
0.631783 0.280678 0.000000
0.671716 0.302280 0.000000
0.709191 0.323800 0.000000
0.746563 0.343998 0.000000
0.782826 0.362567 0.000000
0.819108 0.379210 0.000000
0.854489 0.393590 0.000000
0.890771 0.405352 0.000000
0.926917 0.413503 0.000000
0.963593 0.418592 0.000000
1.000000 0.420135 0.000000
0.000000 0.168934 0.000000
0.079263 0.171162 0.000000
0.156114 0.177137 0.000000
0.230488 0.187177 0.000000
0.300981 0.200221 0.000000
0.362567 0.217174 0.000000
0.419896 0.236506 0.000000
0.472754 0.257791 0.000000
0.522132 0.280525 0.000000
0.566945 0.304110 0.000000
0.609154 0.328525 0.000000
0.649202 0.352616 0.000000
0.687184 0.376535 0.000000
0.725626 0.399121 0.000000
0.763494 0.419896 0.000000
0.801774 0.438608 0.000000
0.839752 0.454766 0.000000
0.879261 0.467910 0.000000
0.919018 0.477148 0.000000
0.959467 0.482820 0.000000
1.000000 0.484544 0.000000
0.000000 0.201179 0.000000
0.074846 0.203465 0.000000
0.147619 0.210028 0.000000
0.218069 0.220921 0.000000
0.285166 0.235183 0.000000
0.343998 0.253437 0.000000
0.399121 0.274374 0.000000
0.450333 0.297436 0.000000
0.498594 0.322091 0.000000
0.542483 0.347768 0.000000
0.584093 0.374306 0.000000
0.624141 0.400407 0.000000
0.662765 0.426022 0.000000
0.702564 0.450333 0.000000
0.742209 0.472754 0.000000
0.782675 0.492888 0.000000
0.823503 0.510010 0.000000
0.866623 0.523942 0.000000
0.910436 0.533955 0.000000
0.955048 0.540182 0.000000
1.000000 0.542151 0.000000
0.000000 0.235878 0.000000
0.070047 0.238192 0.000000
0.138246 0.245221 0.000000
0.204525 0.256677 0.000000
0.268066 0.271803 0.000000
0.323800 0.290809 0.000000
0.376535 0.312816 0.000000
0.426022 0.337235 0.000000
0.473304 0.363500 0.000000
0.516045 0.390746 0.000000
0.557071 0.418871 0.000000
0.597178 0.446471 0.000000
0.636500 0.473304 0.000000
0.677909 0.498594 0.000000
0.719475 0.522132 0.000000
0.762323 0.543260 0.000000
0.806079 0.560942 0.000000
0.853159 0.575326 0.000000
0.901208 0.585821 0.000000
0.950243 0.592530 0.000000
1.000000 0.594583 0.000000
0.000000 0.272893 0.000000
0.064858 0.275171 0.000000
0.128127 0.282279 0.000000
0.189928 0.293650 0.000000
0.249427 0.309029 0.000000
0.302280 0.328284 0.000000
0.352616 0.350798 0.000000
0.400407 0.375859 0.000000
0.446471 0.402822 0.000000
0.488325 0.430826 0.000000
0.528964 0.459708 0.000000
0.569174 0.488325 0.000000
0.609254 0.516045 0.000000
0.652232 0.542483 0.000000
0.695890 0.566945 0.000000
0.741201 0.589059 0.000000
0.787915 0.607644 0.000000
0.839096 0.622743 0.000000
0.891578 0.633787 0.000000
0.945298 0.640772 0.000000
1.000000 0.642993 0.000000
0.000000 0.312599 0.000000
0.059732 0.314906 0.000000
0.118292 0.322022 0.000000
0.175475 0.333382 0.000000
0.230841 0.348931 0.000000
0.280678 0.368217 0.000000
0.328525 0.390846 0.000000
0.374306 0.415907 0.000000
0.418871 0.442929 0.000000
0.459708 0.471036 0.000000
0.500000 0.500000 0.000000
0.540292 0.528964 0.000000
0.581129 0.557071 0.000000
0.625694 0.584093 0.000000
0.671475 0.609154 0.000000
0.719322 0.631783 0.000000
0.769159 0.651069 0.000000
0.824525 0.666618 0.000000
0.881708 0.677978 0.000000
0.940268 0.685094 0.000000
1.000000 0.687401 0.000000
0.000000 0.357007 0.000000
0.054702 0.359228 0.000000
0.108422 0.366213 0.000000
0.160904 0.377257 0.000000
0.212085 0.392356 0.000000
0.258799 0.410941 0.000000
0.304110 0.433055 0.000000
0.347768 0.457517 0.000000
0.390746 0.483955 0.000000
0.430826 0.511675 0.000000
0.471036 0.540292 0.000000
0.511675 0.569174 0.000000
0.553529 0.597178 0.000000
0.599593 0.624141 0.000000
0.647384 0.649202 0.000000
0.697720 0.671716 0.000000
0.750573 0.690971 0.000000
0.810072 0.706350 0.000000
0.871873 0.717721 0.000000
0.935142 0.724829 0.000000
1.000000 0.727107 0.000000
0.000000 0.405417 0.000000
0.049757 0.407470 0.000000
0.098792 0.414179 0.000000
0.146841 0.424674 0.000000
0.193921 0.439058 0.000000
0.237677 0.456740 0.000000
0.280525 0.477868 0.000000
0.322091 0.501406 0.000000
0.363500 0.526696 0.000000
0.402822 0.553529 0.000000
0.442929 0.581129 0.000000
0.483955 0.609254 0.000000
0.526696 0.636500 0.000000
0.573978 0.662765 0.000000
0.623465 0.687184 0.000000
0.676200 0.709191 0.000000
0.731934 0.728197 0.000000
0.795475 0.743323 0.000000
0.861754 0.754779 0.000000
0.929953 0.761808 0.000000
1.000000 0.764122 0.000000
0.000000 0.457849 0.000000
0.044952 0.459818 0.000000
0.089564 0.466045 0.000000
0.133377 0.476058 0.000000
0.176497 0.489990 0.000000
0.217325 0.507112 0.000000
0.257791 0.527246 0.000000
0.297436 0.549667 0.000000
0.337235 0.573978 0.000000
0.375859 0.599593 0.000000
0.415907 0.625694 0.000000
0.457517 0.652232 0.000000
0.501406 0.677909 0.000000
0.549667 0.702564 0.000000
0.600879 0.725626 0.000000
0.656002 0.746563 0.000000
0.714834 0.764817 0.000000
0.781931 0.779079 0.000000
0.852381 0.789972 0.000000
0.925154 0.796535 0.000000
1.000000 0.798821 0.000000
0.000000 0.515456 0.000000
0.040533 0.517180 0.000000
0.080982 0.522852 0.000000
0.120739 0.532090 0.000000
0.160248 0.545234 0.000000
0.198226 0.561392 0.000000
0.236506 0.580104 0.000000
0.274374 0.600879 0.000000
0.312816 0.623465 0.000000
0.350798 0.647384 0.000000
0.390846 0.671475 0.000000
0.433055 0.695890 0.000000
0.477868 0.719475 0.000000
0.527246 0.742209 0.000000
0.580104 0.763494 0.000000
0.637433 0.782826 0.000000
0.699019 0.799779 0.000000
0.769512 0.812823 0.000000
0.843886 0.822863 0.000000
0.920737 0.828838 0.000000
1.000000 0.831066 0.000000
0.000000 0.579865 0.000000
0.036407 0.581408 0.000000
0.073083 0.586497 0.000000
0.109229 0.594648 0.000000
0.145511 0.606410 0.000000
0.180892 0.620790 0.000000
0.217174 0.637433 0.000000
0.253437 0.656002 0.000000
0.290809 0.676200 0.000000
0.328284 0.697720 0.000000
0.368217 0.719322 0.000000
0.410941 0.741201 0.000000
0.456740 0.762323 0.000000
0.507112 0.782675 0.000000
0.561392 0.801774 0.000000
0.620790 0.819108 0.000000
0.685032 0.834175 0.000000
0.758474 0.845419 0.000000
0.836249 0.854419 0.000000
0.916751 0.859735 0.000000
1.000000 0.861652 0.000000
0.000000 0.650763 0.000000
0.032702 0.652098 0.000000
0.065926 0.656442 0.000000
0.099119 0.663220 0.000000
0.132499 0.673020 0.000000
0.165825 0.685032 0.000000
0.200221 0.699019 0.000000
0.235183 0.714834 0.000000
0.271803 0.731934 0.000000
0.309029 0.750573 0.000000
0.348931 0.769159 0.000000
0.392356 0.787915 0.000000
0.439058 0.806079 0.000000
0.489990 0.823503 0.000000
0.545234 0.839752 0.000000
0.606410 0.854489 0.000000
0.673020 0.867501 0.000000
0.748901 0.877309 0.000000
0.829615 0.884857 0.000000
0.913427 0.888959 0.000000
1.000000 0.890637 0.000000
0.000000 0.730831 0.000000
0.030306 0.732025 0.000000
0.060426 0.735591 0.000000
0.091835 0.741064 0.000000
0.122691 0.748901 0.000000
0.154581 0.758474 0.000000
0.187177 0.769512 0.000000
0.220921 0.781931 0.000000
0.256677 0.795475 0.000000
[...]
POINT_DATA 2205 
VECTORS pos float 
0.000000 0.000000 0.000000
0.093116 0.000000 0.000000
0.182894 0.000000 0.000000
0.269169 0.000000 0.000000
0.349237 0.000000 0.000000
0.420135 0.000000 0.000000
0.484544 0.000000 0.000000
0.542151 0.000000 0.000000
0.594583 0.000000 0.000000
0.642993 0.000000 0.000000
0.687401 0.000000 0.000000
0.727107 0.000000 0.000000
0.764122 0.000000 0.000000
0.798821 0.000000 0.000000
0.831066 0.000000 0.000000
0.861652 0.000000 0.000000
0.890637 0.000000 0.000000
0.919505 0.000000 0.000000
0.946514 0.000000 0.000000
0.973502 0.000000 0.000000
1.000000 0.000000 0.000000
0.000000 0.026498 0.000000
0.092716 0.026984 0.000000
0.182187 0.028294 0.000000
0.267975 0.030306 0.000000
0.347902 0.032702 0.000000
0.418592 0.036407 0.000000
0.482820 0.040533 0.000000
0.540182 0.044952 0.000000
0.592530 0.049757 0.000000
0.640772 0.054702 0.000000
0.685094 0.059732 0.000000
0.724829 0.064858 0.000000
0.761808 0.070047 0.000000
0.796535 0.074846 0.000000
0.828838 0.079263 0.000000
0.859735 0.083249 0.000000
0.888959 0.086573 0.000000
0.918106 0.089402 0.000000
0.945613 0.091431 0.000000
0.973016 0.092716 0.000000
1.000000 0.093116 0.000000
0.000000 0.053486 0.000000
0.091431 0.054387 0.000000
0.179650 0.056388 0.000000
0.264409 0.060426 0.000000
0.343558 0.065926 0.000000
0.413503 0.073083 0.000000
0.477148 0.080982 0.000000
0.533955 0.089564 0.000000
0.585821 0.098792 0.000000
0.633787 0.108422 0.000000
0.677978 0.118292 0.000000
0.717721 0.128127 0.000000
0.754779 0.138246 0.000000
0.789972 0.147619 0.000000
0.822863 0.156114 0.000000
0.854419 0.163751 0.000000
0.884857 0.170385 0.000000
0.914381 0.175876 0.000000
0.943612 0.179650 0.000000
0.971706 0.182187 0.000000
1.000000 0.182894 0.000000
0.000000 0.080495 0.000000
0.089402 0.081894 0.000000
0.175876 0.085619 0.000000
0.258936 0.091835 0.000000
0.336780 0.099119 0.000000
0.405352 0.109229 0.000000
0.467910 0.120739 0.000000
0.523942 0.133377 0.000000
0.575326 0.146841 0.000000
0.622743 0.160904 0.000000
0.666618 0.175475 0.000000
0.706350 0.189928 0.000000
0.743323 0.204525 0.000000
0.779079 0.218069 0.000000
0.812823 0.230488 0.000000
0.845419 0.241526 0.000000
0.877309 0.251099 0.000000
0.908165 0.258936 0.000000
0.939574 0.264409 0.000000
0.969694 0.267975 0.000000
1.000000 0.269169 0.000000
0.000000 0.109363 0.000000
0.086573 0.111041 0.000000
0.170385 0.115143 0.000000
0.251099 0.122691 0.000000
0.326980 0.132499 0.000000
0.393590 0.145511 0.000000
0.454766 0.160248 0.000000
0.510010 0.176497 0.000000
0.560942 0.193921 0.000000
0.607644 0.212085 0.000000
0.651069 0.230841 0.000000
0.690971 0.249427 0.000000
0.728197 0.268066 0.000000
0.764817 0.285166 0.000000
0.799779 0.300981 0.000000
0.834175 0.314968 0.000000
0.867501 0.326980 0.000000
0.900881 0.336780 0.000000
0.934074 0.343558 0.000000
0.967298 0.347902 0.000000
1.000000 0.349237 0.000000
0.000000 0.138348 0.000000
0.083249 0.140265 0.000000
0.163751 0.145581 0.000000
0.241526 0.154581 0.000000
0.314968 0.165825 0.000000
0.379210 0.180892 0.000000
0.438608 0.198226 0.000000
0.492888 0.217325 0.000000
0.543260 0.237677 0.000000
0.589059 0.258799 0.000000
0.631783 0.280678 0.000000
0.671716 0.302280 0.000000
0.709191 0.323800 0.000000
0.746563 0.343998 0.000000
0.782826 0.362567 0.000000
0.819108 0.379210 0.000000
0.854489 0.393590 0.000000
0.890771 0.405352 0.000000
0.926917 0.413503 0.000000
0.963593 0.418592 0.000000
1.000000 0.420135 0.000000
0.000000 0.168934 0.000000
0.079263 0.171162 0.000000
0.156114 0.177137 0.000000
0.230488 0.187177 0.000000
0.300981 0.200221 0.000000
0.362567 0.217174 0.000000
0.419896 0.236506 0.000000
0.472754 0.257791 0.000000
0.522132 0.280525 0.000000
0.566945 0.304110 0.000000
0.609154 0.328525 0.000000
0.649202 0.352616 0.000000
0.687184 0.376535 0.000000
0.725626 0.399121 0.000000
0.763494 0.419896 0.000000
0.801774 0.438608 0.000000
0.839752 0.454766 0.000000
0.879261 0.467910 0.000000
0.919018 0.477148 0.000000
0.959467 0.482820 0.000000
1.000000 0.484544 0.000000
0.000000 0.201179 0.000000
0.074846 0.203465 0.000000
0.147619 0.210028 0.000000
0.218069 0.220921 0.000000
0.285166 0.235183 0.000000
0.343998 0.253437 0.000000
0.399121 0.274374 0.000000
0.450333 0.297436 0.000000
0.498594 0.322091 0.000000
0.542483 0.347768 0.000000
0.584093 0.374306 0.000000
0.624141 0.400407 0.000000
0.662765 0.426022 0.000000
0.702564 0.450333 0.000000
0.742209 0.472754 0.000000
0.782675 0.492888 0.000000
0.823503 0.510010 0.000000
0.866623 0.523942 0.000000
0.910436 0.533955 0.000000
0.955048 0.540182 0.000000
1.000000 0.542151 0.000000
0.000000 0.235878 0.000000
0.070047 0.238192 0.000000
0.138246 0.245221 0.000000
0.204525 0.256677 0.000000
0.268066 0.271803 0.000000
0.323800 0.290809 0.000000
0.376535 0.312816 0.000000
0.426022 0.337235 0.000000
0.473304 0.363500 0.000000
0.516045 0.390746 0.000000
0.557071 0.418871 0.000000
0.597178 0.446471 0.000000
0.636500 0.473304 0.000000
0.677909 0.498594 0.000000
0.719475 0.522132 0.000000
0.762323 0.543260 0.000000
0.806079 0.560942 0.000000
0.853159 0.575326 0.000000
0.901208 0.585821 0.000000
0.950243 0.592530 0.000000
1.000000 0.594583 0.000000
0.000000 0.272893 0.000000
0.064858 0.275171 0.000000
0.128127 0.282279 0.000000
0.189928 0.293650 0.000000
0.249427 0.309029 0.000000
0.302280 0.328284 0.000000
0.352616 0.350798 0.000000
0.400407 0.375859 0.000000
0.446471 0.402822 0.000000
0.488325 0.430826 0.000000
0.528964 0.459708 0.000000
0.569174 0.488325 0.000000
0.609254 0.516045 0.000000
0.652232 0.542483 0.000000
0.695890 0.566945 0.000000
0.741201 0.589059 0.000000
0.787915 0.607644 0.000000
0.839096 0.622743 0.000000
0.891578 0.633787 0.000000
0.945298 0.640772 0.000000
1.000000 0.642993 0.000000
0.000000 0.312599 0.000000
0.059732 0.314906 0.000000
0.118292 0.322022 0.000000
0.175475 0.333382 0.000000
0.230841 0.348931 0.000000
0.280678 0.368217 0.000000
0.328525 0.390846 0.000000
0.374306 0.415907 0.000000
0.418871 0.442929 0.000000
0.459708 0.471036 0.000000
0.500000 0.500000 0.000000
0.540292 0.528964 0.000000
0.581129 0.557071 0.000000
0.625694 0.584093 0.000000
0.671475 0.609154 0.000000
0.719322 0.631783 0.000000
0.769159 0.651069 0.000000
0.824525 0.666618 0.000000
0.881708 0.677978 0.000000
0.940268 0.685094 0.000000
1.000000 0.687401 0.000000
0.000000 0.357007 0.000000
0.054702 0.359228 0.000000
0.108422 0.366213 0.000000
0.160904 0.377257 0.000000
0.212085 0.392356 0.000000
0.258799 0.410941 0.000000
0.304110 0.433055 0.000000
0.347768 0.457517 0.000000
0.390746 0.483955 0.000000
0.430826 0.511675 0.000000
0.471036 0.540292 0.000000
0.511675 0.569174 0.000000
0.553529 0.597178 0.000000
0.599593 0.624141 0.000000
0.647384 0.649202 0.000000
0.697720 0.671716 0.000000
0.750573 0.690971 0.000000
0.810072 0.706350 0.000000
0.871873 0.717721 0.000000
0.935142 0.724829 0.000000
1.000000 0.727107 0.000000
0.000000 0.405417 0.000000
0.049757 0.407470 0.000000
0.098792 0.414179 0.000000
0.146841 0.424674 0.000000
0.193921 0.439058 0.000000
0.237677 0.456740 0.000000
0.280525 0.477868 0.000000
0.322091 0.501406 0.000000
0.363500 0.526696 0.000000
0.402822 0.553529 0.000000
0.442929 0.581129 0.000000
0.483955 0.609254 0.000000
0.526696 0.636500 0.000000
0.573978 0.662765 0.000000
0.623465 0.687184 0.000000
0.676200 0.709191 0.000000
0.731934 0.728197 0.000000
0.795475 0.743323 0.000000
0.861754 0.754779 0.000000
0.929953 0.761808 0.000000
1.000000 0.764122 0.000000
0.000000 0.457849 0.000000
0.044952 0.459818 0.000000
0.089564 0.466045 0.000000
0.133377 0.476058 0.000000
0.176497 0.489990 0.000000
0.217325 0.507112 0.000000
0.257791 0.527246 0.000000
0.297436 0.549667 0.000000
0.337235 0.573978 0.000000
0.375859 0.599593 0.000000
0.415907 0.625694 0.000000
0.457517 0.652232 0.000000
0.501406 0.677909 0.000000
0.549667 0.702564 0.000000
0.600879 0.725626 0.000000
0.656002 0.746563 0.000000
0.714834 0.764817 0.000000
0.781931 0.779079 0.000000
0.852381 0.789972 0.000000
0.925154 0.796535 0.000000
1.000000 0.798821 0.000000
0.000000 0.515456 0.000000
0.040533 0.517180 0.000000
0.080982 0.522852 0.000000
0.120739 0.532090 0.000000
0.160248 0.545234 0.000000
0.198226 0.561392 0.000000
0.236506 0.580104 0.000000
0.274374 0.600879 0.000000
0.312816 0.623465 0.000000
0.350798 0.647384 0.000000
0.390846 0.671475 0.000000
0.433055 0.695890 0.000000
0.477868 0.719475 0.000000
0.527246 0.742209 0.000000
0.580104 0.763494 0.000000
0.637433 0.782826 0.000000
0.699019 0.799779 0.000000
0.769512 0.812823 0.000000
0.843886 0.822863 0.000000
0.920737 0.828838 0.000000
1.000000 0.831066 0.000000
0.000000 0.579865 0.000000
0.036407 0.581408 0.000000
0.073083 0.586497 0.000000
0.109229 0.594648 0.000000
0.145511 0.606410 0.000000
0.180892 0.620790 0.000000
0.217174 0.637433 0.000000
0.253437 0.656002 0.000000
0.290809 0.676200 0.000000
0.328284 0.697720 0.000000
0.368217 0.719322 0.000000
0.410941 0.741201 0.000000
0.456740 0.762323 0.000000
0.507112 0.782675 0.000000
0.561392 0.801774 0.000000
0.620790 0.819108 0.000000
0.685032 0.834175 0.000000
0.758474 0.845419 0.000000
0.836249 0.854419 0.000000
0.916751 0.859735 0.000000
1.000000 0.861652 0.000000
0.000000 0.650763 0.000000
0.032702 0.652098 0.000000
0.065926 0.656442 0.000000
0.099119 0.663220 0.000000
0.132499 0.673020 0.000000
0.165825 0.685032 0.000000
0.200221 0.699019 0.000000
0.235183 0.714834 0.000000
0.271803 0.731934 0.000000
0.309029 0.750573 0.000000
0.348931 0.769159 0.000000
0.392356 0.787915 0.000000
0.439058 0.806079 0.000000
0.489990 0.823503 0.000000
0.545234 0.839752 0.000000
0.606410 0.854489 0.000000
0.673020 0.867501 0.000000
0.748901 0.877309 0.000000
0.829615 0.884857 0.000000
0.913427 0.888959 0.000000
1.000000 0.890637 0.000000
0.000000 0.730831 0.000000
0.030306 0.732025 0.000000
0.060426 0.735591 0.000000
0.091835 0.741064 0.000000
0.122691 0.748901 0.000000
0.154581 0.758474 0.000000
0.187177 0.769512 0.000000
0.220921 0.781931 0.000000
0.256677 0.795475 0.000000
0.293650 0.810072 0.000000
0.333382 0.824525 0.000000
0.377257 0.839096 0.000000
0.424674 0.853159 0.000000
0.476058 0.866623 0.000000
0.532090 0.879261 0.000000
0.594648 0.890771 0.000000
0.663220 0.900881 0.000000
0.741064 0.908165 0.000000
0.824124 0.914381 0.000000
0.910598 0.918106 0.000000
1.000000 0.919505 0.000000
0.000000 0.817106 0.000000
0.028294 0.817813 0.000000
0.056388 0.820350 0.000000
0.085619 0.824124 0.000000
0.115143 0.829615 0.000000
0.145581 0.836249 0.000000
0.177137 0.843886 0.000000
0.210028 0.852381 0.000000
0.245221 0.861754 0.000000
0.282279 0.871873 0.000000
0.322022 0.881708 0.000000
0.366213 0.891578 0.000000
0.414179 0.901208 0.000000
0.466045 0.910436 0.000000
0.522852 0.919018 0.000000
0.586497 0.926917 0.000000
0.656442 0.934074 0.000000
0.735591 0.939574 0.000000
0.820350 0.943612 0.000000
0.908569 0.945613 0.000000
1.000000 0.946514 0.000000
0.000000 0.906884 0.000000
0.026984 0.907284 0.000000
0.054387 0.908569 0.000000
0.081894 0.910598 0.000000
0.111041 0.913427 0.000000
0.140265 0.916751 0.000000
0.171162 0.920737 0.000000
0.203465 0.925154 0.000000
0.238192 0.929953 0.000000
0.275171 0.935142 0.000000
0.314906 0.940268 0.000000
0.359228 0.945298 0.000000
0.407470 0.950243 0.000000
0.459818 0.955048 0.000000
0.517180 0.959467 0.000000
0.581408 0.963593 0.000000
0.652098 0.967298 0.000000
0.732025 0.969694 0.000000
0.817813 0.971706 0.000000
0.907284 0.973016 0.000000
1.000000 0.973502 0.000000
0.000000 1.000000 0.000000
0.026498 1.000000 0.000000
0.053486 1.000000 0.000000
0.080495 1.000000 0.000000
0.109363 1.000000 0.000000
0.138348 1.000000 0.000000
0.168934 1.000000 0.000000
0.201179 1.000000 0.000000
0.235878 1.000000 0.000000
0.272893 1.000000 0.000000
0.312599 1.000000 0.000000
0.357007 1.000000 0.000000
0.405417 1.000000 0.000000
0.457849 1.000000 0.000000
0.515456 1.000000 0.000000
0.579865 1.000000 0.000000
0.650763 1.000000 0.000000
0.730831 1.000000 0.000000
0.817106 1.000000 0.000000
0.906884 1.000000 0.000000
1.000000 1.000000 0.000000
0.000000 0.000000 0.082500
0.093116 0.000000 0.082500
0.182894 0.000000 0.082500
0.269169 0.000000 0.082500
0.349237 0.000000 0.082500
0.420135 0.000000 0.082500
0.484544 0.000000 0.082500
0.542151 0.000000 0.082500
0.594583 0.000000 0.082500
0.642993 0.000000 0.082500
0.687401 0.000000 0.082500
0.727107 0.000000 0.082500
0.764122 0.000000 0.082500
0.798821 0.000000 0.082500
0.831066 0.000000 0.082500
0.861652 0.000000 0.082500
0.890637 0.000000 0.082500
0.919505 0.000000 0.082500
0.946514 0.000000 0.082500
0.973502 0.000000 0.082500
1.000000 0.000000 0.082500
0.000000 0.026498 0.082500
0.092716 0.026984 0.082500
0.182187 0.028294 0.082500
0.267975 0.030306 0.082500
0.347902 0.032702 0.082500
0.418592 0.036407 0.082500
0.482820 0.040533 0.082500
0.540182 0.044952 0.082500
0.592530 0.049757 0.082500
0.640772 0.054702 0.082500
0.685094 0.059732 0.082500
0.724829 0.064858 0.082500
0.761808 0.070047 0.082500
0.796535 0.074846 0.082500
0.828838 0.079263 0.082500
0.859735 0.083249 0.082500
0.888959 0.086573 0.082500
0.918106 0.089402 0.082500
0.945613 0.091431 0.082500
0.973016 0.092716 0.082500
1.000000 0.093116 0.082500
0.000000 0.053486 0.082500
0.091431 0.054387 0.082500
0.179650 0.056388 0.082500
0.264409 0.060426 0.082500
0.343558 0.065926 0.082500
0.413503 0.073083 0.082500
0.477148 0.080982 0.082500
0.533955 0.089564 0.082500
0.585821 0.098792 0.082500
0.633787 0.108422 0.082500
0.677978 0.118292 0.082500
0.717721 0.128127 0.082500
0.754779 0.138246 0.082500
0.789972 0.147619 0.082500
0.822863 0.156114 0.082500
0.854419 0.163751 0.082500
0.884857 0.170385 0.082500
0.914381 0.175876 0.082500
0.943612 0.179650 0.082500
0.971706 0.182187 0.082500
1.000000 0.182894 0.082500
0.000000 0.080495 0.082500
0.089402 0.081894 0.082500
0.175876 0.085619 0.082500
0.258936 0.091835 0.082500
0.336780 0.099119 0.082500
0.405352 0.109229 0.082500
0.467910 0.120739 0.082500
0.523942 0.133377 0.082500
0.575326 0.146841 0.082500
0.622743 0.160904 0.082500
0.666618 0.175475 0.082500
0.706350 0.189928 0.082500
0.743323 0.204525 0.082500
0.779079 0.218069 0.082500
0.812823 0.230488 0.082500
0.845419 0.241526 0.082500
0.877309 0.251099 0.082500
0.908165 0.258936 0.082500
0.939574 0.264409 0.082500
0.969694 0.267975 0.082500
1.000000 0.269169 0.082500
0.000000 0.109363 0.082500
0.086573 0.111041 0.082500
0.170385 0.115143 0.082500
0.251099 0.122691 0.082500
0.326980 0.132499 0.082500
0.393590 0.145511 0.082500
0.454766 0.160248 0.082500
0.510010 0.176497 0.082500
0.560942 0.193921 0.082500
0.607644 0.212085 0.082500
0.651069 0.230841 0.082500
0.690971 0.249427 0.082500
0.728197 0.268066 0.082500
0.764817 0.285166 0.082500
0.799779 0.300981 0.082500
0.834175 0.314968 0.082500
0.867501 0.326980 0.082500
0.900881 0.336780 0.082500
0.934074 0.343558 0.082500
0.967298 0.347902 0.082500
1.000000 0.349237 0.082500
0.000000 0.138348 0.082500
0.083249 0.140265 0.082500
0.163751 0.145581 0.082500
0.241526 0.154581 0.082500
0.314968 0.165825 0.082500
0.379210 0.180892 0.082500
0.438608 0.198226 0.082500
0.492888 0.217325 0.082500
0.543260 0.237677 0.082500
0.589059 0.258799 0.082500
0.631783 0.280678 0.082500
0.671716 0.302280 0.082500
0.709191 0.323800 0.082500
0.746563 0.343998 0.082500
0.782826 0.362567 0.082500
0.819108 0.379210 0.082500
0.854489 0.393590 0.082500
0.890771 0.405352 0.082500
0.926917 0.413503 0.082500
0.963593 0.418592 0.082500
1.000000 0.420135 0.082500
0.000000 0.168934 0.082500
0.079263 0.171162 0.082500
0.156114 0.177137 0.082500
0.230488 0.187177 0.082500
0.300981 0.200221 0.082500
0.362567 0.217174 0.082500
0.419896 0.236506 0.082500
0.472754 0.257791 0.082500
0.522132 0.280525 0.082500
0.566945 0.304110 0.082500
0.609154 0.328525 0.082500
0.649202 0.352616 0.082500
0.687184 0.376535 0.082500
0.725626 0.399121 0.082500
0.763494 0.419896 0.082500
0.801774 0.438608 0.082500
0.839752 0.454766 0.082500
0.879261 0.467910 0.082500
0.919018 0.477148 0.082500
0.959467 0.482820 0.082500
1.000000 0.484544 0.082500
0.000000 0.201179 0.082500
0.074846 0.203465 0.082500
0.147619 0.210028 0.082500
0.218069 0.220921 0.082500
0.285166 0.235183 0.082500
0.343998 0.253437 0.082500
0.399121 0.274374 0.082500
0.450333 0.297436 0.082500
0.498594 0.322091 0.082500
0.542483 0.347768 0.082500
0.584093 0.374306 0.082500
0.624141 0.400407 0.082500
0.662765 0.426022 0.082500
0.702564 0.450333 0.082500
0.742209 0.472754 0.082500
0.782675 0.492888 0.082500
0.823503 0.510010 0.082500
0.866623 0.523942 0.082500
0.910436 0.533955 0.082500
0.955048 0.540182 0.082500
1.000000 0.542151 0.082500
0.000000 0.235878 0.082500
0.070047 0.238192 0.082500
0.138246 0.245221 0.082500
0.204525 0.256677 0.082500
0.268066 0.271803 0.082500
0.323800 0.290809 0.082500
0.376535 0.312816 0.082500
0.426022 0.337235 0.082500
0.473304 0.363500 0.082500
0.516045 0.390746 0.082500
0.557071 0.418871 0.082500
0.597178 0.446471 0.082500
0.636500 0.473304 0.082500
0.677909 0.498594 0.082500
0.719475 0.522132 0.082500
0.762323 0.543260 0.082500
0.806079 0.560942 0.082500
0.853159 0.575326 0.082500
0.901208 0.585821 0.082500
0.950243 0.592530 0.082500
1.000000 0.594583 0.082500
0.000000 0.272893 0.082500
0.064858 0.275171 0.082500
0.128127 0.282279 0.082500
0.189928 0.293650 0.082500
0.249427 0.309029 0.082500
0.302280 0.328284 0.082500
0.352616 0.350798 0.082500
0.400407 0.375859 0.082500
0.446471 0.402822 0.082500
0.488325 0.430826 0.082500
0.528964 0.459708 0.082500
0.569174 0.488325 0.082500
0.609254 0.516045 0.082500
0.652232 0.542483 0.082500
0.695890 0.566945 0.082500
0.741201 0.589059 0.082500
0.787915 0.607644 0.082500
0.839096 0.622743 0.082500
0.891578 0.633787 0.082500
0.945298 0.640772 0.082500
1.000000 0.642993 0.082500
0.000000 0.312599 0.082500
0.059732 0.314906 0.082500
0.118292 0.322022 0.082500
0.175475 0.333382 0.082500
0.230841 0.348931 0.082500
0.280678 0.368217 0.082500
0.328525 0.390846 0.082500
0.374306 0.415907 0.082500
0.418871 0.442929 0.082500
0.459708 0.471036 0.082500
0.500000 0.500000 0.082500
0.540292 0.528964 0.082500
0.581129 0.557071 0.082500
0.625694 0.584093 0.082500
0.671475 0.609154 0.082500
0.719322 0.631783 0.082500
0.769159 0.651069 0.082500
0.824525 0.666618 0.082500
0.881708 0.677978 0.082500
0.940268 0.685094 0.082500
1.000000 0.687401 0.082500
0.000000 0.357007 0.082500
0.054702 0.359228 0.082500
0.108422 0.366213 0.082500
0.160904 0.377257 0.082500
0.212085 0.392356 0.082500
0.258799 0.410941 0.082500
0.304110 0.433055 0.082500
0.347768 0.457517 0.082500
0.390746 0.483955 0.082500
0.430826 0.511675 0.082500
0.471036 0.540292 0.082500
0.511675 0.569174 0.082500
0.553529 0.597178 0.082500
0.599593 0.624141 0.082500
0.647384 0.649202 0.082500
0.697720 0.671716 0.082500
0.750573 0.690971 0.082500
0.810072 0.706350 0.082500
0.871873 0.717721 0.082500
0.935142 0.724829 0.082500
1.000000 0.727107 0.082500
0.000000 0.405417 0.082500
0.049757 0.407470 0.082500
0.098792 0.414179 0.082500
0.146841 0.424674 0.082500
0.193921 0.439058 0.082500
0.237677 0.456740 0.082500
0.280525 0.477868 0.082500
0.322091 0.501406 0.082500
0.363500 0.526696 0.082500
0.402822 0.553529 0.082500
0.442929 0.581129 0.082500
0.483955 0.609254 0.082500
0.526696 0.636500 0.082500
0.573978 0.662765 0.082500
0.623465 0.687184 0.082500
0.676200 0.709191 0.082500
0.731934 0.728197 0.082500
0.795475 0.743323 0.082500
0.861754 0.754779 0.082500
0.929953 0.761808 0.082500
1.000000 0.764122 0.082500
0.000000 0.457849 0.082500
0.044952 0.459818 0.082500
0.089564 0.466045 0.082500
0.133377 0.476058 0.082500
0.176497 0.489990 0.082500
0.217325 0.507112 0.082500
0.257791 0.527246 0.082500
0.297436 0.549667 0.082500
0.337235 0.573978 0.082500
0.375859 0.599593 0.082500
0.415907 0.625694 0.082500
0.457517 0.652232 0.082500
0.501406 0.677909 0.082500
0.549667 0.702564 0.082500
0.600879 0.725626 0.082500
0.656002 0.746563 0.082500
0.714834 0.764817 0.082500
0.781931 0.779079 0.082500
0.852381 0.789972 0.082500
0.925154 0.796535 0.082500
1.000000 0.798821 0.082500
0.000000 0.515456 0.082500
0.040533 0.517180 0.082500
0.080982 0.522852 0.082500
0.120739 0.532090 0.082500