# vtk DataFile Version 2.0
Mesh for Fierro
ASCII 
DATASET UNSTRUCTURED_GRID

POINTS 2205 float
0.000000 0.000000 0.000000
0.520861 0.000000 0.000000
0.758658 0.000000 0.000000
0.824826 0.000000 0.000000
0.870858 0.000000 0.000000
0.895291 0.000000 0.000000
0.913746 0.000000 0.000000
0.928398 0.000000 0.000000
0.939823 0.000000 0.000000
0.948692 0.000000 0.000000
0.956017 0.000000 0.000000
0.962247 0.000000 0.000000
0.967438 0.000000 0.000000
0.971795 0.000000 0.000000
0.975739 0.000000 0.000000
0.979503 0.000000 0.000000
0.983187 0.000000 0.000000
0.987143 0.000000 0.000000
0.991222 0.000000 0.000000
0.995568 0.000000 0.000000
1.000000 0.000000 0.000000
0.000000 0.004432 0.000000
0.518517 0.006910 0.000000
0.752694 0.024317 0.000000
0.820831 0.044186 0.000000
0.866284 0.079129 0.000000
0.890151 0.115681 0.000000
0.908126 0.150779 0.000000
0.920446 0.194374 0.000000
0.929529 0.240475 0.000000
0.936522 0.283361 0.000000
0.942611 0.323422 0.000000
0.948088 0.361858 0.000000
0.952912 0.399272 0.000000
0.957816 0.430781 0.000000
0.962762 0.457086 0.000000
0.968000 0.478963 0.000000
0.973622 0.494863 0.000000
0.979836 0.505958 0.000000
0.986350 0.512763 0.000000
0.993090 0.518517 0.000000
1.000000 0.520861 0.000000
0.000000 0.008778 0.000000
0.512763 0.013650 0.000000
0.741455 0.045966 0.000000
0.814163 0.083451 0.000000
0.856089 0.149531 0.000000
0.879129 0.210710 0.000000
0.894119 0.279532 0.000000
0.901882 0.352109 0.000000
0.904710 0.421209 0.000000
0.906274 0.477313 0.000000
0.906235 0.526690 0.000000
0.904529 0.569960 0.000000
0.901740 0.607845 0.000000
0.901084 0.639479 0.000000
0.903535 0.665919 0.000000
0.909767 0.688960 0.000000
0.920626 0.707995 0.000000
0.935917 0.725302 0.000000
0.954034 0.741455 0.000000
0.975683 0.752694 0.000000
1.000000 0.758658 0.000000
0.000000 0.012857 0.000000
0.505958 0.020164 0.000000
0.725302 0.064083 0.000000
0.803295 0.115122 0.000000
0.837675 0.203713 0.000000
0.860389 0.275964 0.000000
0.868775 0.359893 0.000000
0.867373 0.436898 0.000000
0.858822 0.506279 0.000000
0.851484 0.560306 0.000000
0.840657 0.610060 0.000000
0.830388 0.653129 0.000000
0.821241 0.692205 0.000000
0.819568 0.725029 0.000000
0.824748 0.752325 0.000000
0.837502 0.774276 0.000000
0.857294 0.790855 0.000000
0.884878 0.803295 0.000000
0.916549 0.814163 0.000000
0.955814 0.820831 0.000000
1.000000 0.824826 0.000000
0.000000 0.016813 0.000000
0.494863 0.026378 0.000000
0.707995 0.079374 0.000000
0.790855 0.142706 0.000000
0.815109 0.246005 0.000000
0.838553 0.325897 0.000000
0.835000 0.420436 0.000000
0.823697 0.494019 0.000000
0.803679 0.560770 0.000000
0.786579 0.612649 0.000000
0.765351 0.656998 0.000000
0.748764 0.691875 0.000000
0.733145 0.719641 0.000000
0.725959 0.744046 0.000000
0.725512 0.767339 0.000000
0.734093 0.791312 0.000000
0.753995 0.815109 0.000000
0.796287 0.837675 0.000000
0.850469 0.856089 0.000000
0.920871 0.866284 0.000000
1.000000 0.870858 0.000000
0.000000 0.020497 0.000000
0.478963 0.032000 0.000000
0.688960 0.090233 0.000000
0.774276 0.162498 0.000000
0.791312 0.265907 0.000000
0.813854 0.352110 0.000000
0.800807 0.440166 0.000000
0.782633 0.510394 0.000000
0.755796 0.570434 0.000000
0.730290 0.618360 0.000000
0.700927 0.658912 0.000000
0.672611 0.693837 0.000000
0.646400 0.725278 0.000000
0.633913 0.756840 0.000000
0.633406 0.786373 0.000000
0.647890 0.813854 0.000000
0.674103 0.838553 0.000000
0.724036 0.860389 0.000000
0.789290 0.879129 0.000000
0.884319 0.890151 0.000000
1.000000 0.895291 0.000000
0.000000 0.024261 0.000000
0.457086 0.037238 0.000000
0.665919 0.096465 0.000000
0.752325 0.175252 0.000000
0.767339 0.274488 0.000000
0.786373 0.366594 0.000000
0.765602 0.446341 0.000000
0.742142 0.513624 0.000000
0.707758 0.567894 0.000000
0.676549 0.611613 0.000000
0.641237 0.647150 0.000000
0.609783 0.677678 0.000000
0.581084 0.704421 0.000000
0.563065 0.734434 0.000000
0.553659 0.765602 0.000000
0.559834 0.800807 0.000000
0.579564 0.835000 0.000000
0.640107 0.868775 0.000000
0.720468 0.894119 0.000000
0.849221 0.908126 0.000000
1.000000 0.913746 0.000000
0.000000 0.028205 0.000000
0.430781 0.042184 0.000000
0.639479 0.098916 0.000000
0.725029 0.180432 0.000000
0.744046 0.274041 0.000000
0.756840 0.366087 0.000000
0.734434 0.436935 0.000000
0.706374 0.501138 0.000000
0.668452 0.548542 0.000000
0.632898 0.588480 0.000000
0.593680 0.619376 0.000000
0.556277 0.646899 0.000000
0.521690 0.673041 0.000000
0.498862 0.706374 0.000000
0.486376 0.742142 0.000000
0.489606 0.782633 0.000000
0.505981 0.823697 0.000000
0.563102 0.867373 0.000000
0.647891 0.901882 0.000000
0.805626 0.920446 0.000000
1.000000 0.928398 0.000000
0.000000 0.032562 0.000000
0.399272 0.047088 0.000000
0.607845 0.098260 0.000000
0.692205 0.178759 0.000000
0.719641 0.266855 0.000000
0.725278 0.353600 0.000000
0.704421 0.418916 0.000000
0.673041 0.478310 0.000000
0.632671 0.521320 0.000000
0.593936 0.557282 0.000000
0.552408 0.583326 0.000000
0.514621 0.608360 0.000000
0.478680 0.632671 0.000000
0.451458 0.668452 0.000000
0.432106 0.707758 0.000000
0.429566 0.755796 0.000000
0.439230 0.803679 0.000000
0.493721 0.858822 0.000000
0.578791 0.904710 0.000000
0.759525 0.929529 0.000000
1.000000 0.939823 0.000000
0.000000 0.037753 0.000000
0.361858 0.051912 0.000000
0.569960 0.095471 0.000000
0.653129 0.169612 0.000000
0.691875 0.251236 0.000000
0.693837 0.327389 0.000000
0.677678 0.390217 0.000000
0.646899 0.443723 0.000000
0.608360 0.485379 0.000000
0.567374 0.517981 0.000000
0.524034 0.542635 0.000000
0.482019 0.567374 0.000000
0.442718 0.593936 0.000000
0.411520 0.632898 0.000000
0.388387 0.676549 0.000000
0.381640 0.730290 0.000000
0.387351 0.786579 0.000000
0.439694 0.851484 0.000000
0.522687 0.906274 0.000000
0.716639 0.936522 0.000000
1.000000 0.948692 0.000000
0.000000 0.043983 0.000000
0.323422 0.057389 0.000000
0.526690 0.093765 0.000000
0.610060 0.159343 0.000000
0.656998 0.234649 0.000000
0.658912 0.299073 0.000000
0.647150 0.358763 0.000000
0.619376 0.406320 0.000000
0.583326 0.447592 0.000000
0.542635 0.475966 0.000000
0.500000 0.500000 0.000000
0.457365 0.524034 0.000000
0.416674 0.552408 0.000000
0.380624 0.593680 0.000000
0.352850 0.641237 0.000000
0.341088 0.700927 0.000000
0.343002 0.765351 0.000000
0.389940 0.840657 0.000000
0.473310 0.906235 0.000000
0.676578 0.942611 0.000000
1.000000 0.956017 0.000000
0.000000 0.051308 0.000000
0.283361 0.063478 0.000000
0.477313 0.093726 0.000000
0.560306 0.148516 0.000000
0.612649 0.213421 0.000000
0.618360 0.269710 0.000000
0.611613 0.323451 0.000000
0.588480 0.367102 0.000000
0.557282 0.406064 0.000000
0.517981 0.432626 0.000000
0.475966 0.457365 0.000000
0.432626 0.482019 0.000000
0.391640 0.514621 0.000000
0.353101 0.556277 0.000000
0.322322 0.609783 0.000000
0.306163 0.672611 0.000000
0.308125 0.748764 0.000000
0.346871 0.830388 0.000000
0.430040 0.904529 0.000000
0.638142 0.948088 0.000000
1.000000 0.962247 0.000000
0.000000 0.060177 0.000000
0.240475 0.070471 0.000000
0.421209 0.095290 0.000000
0.506279 0.141178 0.000000
0.560770 0.196321 0.000000
0.570434 0.244204 0.000000
0.567894 0.292242 0.000000
0.548542 0.331548 0.000000
0.521320 0.367329 0.000000
0.485379 0.391640 0.000000
0.447592 0.416674 0.000000
0.406064 0.442718 0.000000
0.367329 0.478680 0.000000
0.326959 0.521690 0.000000
0.295579 0.581084 0.000000
0.274722 0.646400 0.000000
0.280359 0.733145 0.000000
0.307795 0.821241 0.000000
0.392155 0.901740 0.000000
0.600728 0.952912 0.000000
1.000000 0.967438 0.000000
0.000000 0.071602 0.000000
0.194374 0.079554 0.000000
0.352109 0.098118 0.000000
0.436898 0.132627 0.000000
0.494019 0.176303 0.000000
0.510394 0.217367 0.000000
0.513624 0.257858 0.000000
0.501138 0.293626 0.000000
0.478310 0.326959 0.000000
0.443723 0.353101 0.000000
0.406320 0.380624 0.000000
0.367102 0.411520 0.000000
0.331548 0.451458 0.000000
0.293626 0.498862 0.000000
0.265566 0.563065 0.000000
0.243160 0.633913 0.000000
0.255954 0.725959 0.000000
0.274971 0.819568 0.000000
0.360521 0.901084 0.000000
0.569219 0.957816 0.000000
1.000000 0.971795 0.000000
0.000000 0.086254 0.000000
0.150779 0.091874 0.000000
0.279532 0.105881 0.000000
0.359893 0.131225 0.000000
0.420436 0.165000 0.000000
0.440166 0.199193 0.000000
0.446341 0.234398 0.000000
0.436935 0.265566 0.000000
0.418916 0.295579 0.000000
0.390217 0.322322 0.000000
0.358763 0.352850 0.000000
0.323451 0.388387 0.000000
0.292242 0.432106 0.000000
0.257858 0.486376 0.000000
0.234398 0.553659 0.000000
0.213627 0.633406 0.000000
0.232661 0.725512 0.000000
0.247675 0.824748 0.000000
0.334081 0.903535 0.000000
0.542914 0.962762 0.000000
1.000000 0.975739 0.000000
0.000000 0.104709 0.000000
0.115681 0.109849 0.000000
0.210710 0.120871 0.000000
0.275964 0.139611 0.000000
0.325897 0.161447 0.000000
0.352110 0.186146 0.000000
0.366594 0.213627 0.000000
0.366087 0.243160 0.000000
0.353600 0.274722 0.000000
0.327389 0.306163 0.000000
0.299073 0.341088 0.000000
0.269710 0.381640 0.000000
0.244204 0.429566 0.000000
0.217367 0.489606 0.000000
0.199193 0.559834 0.000000
0.186146 0.647890 0.000000
0.208688 0.734093 0.000000
0.225724 0.837502 0.000000
0.311040 0.909767 0.000000
0.521037 0.968000 0.000000
1.000000 0.979503 0.000000
0.000000 0.129142 0.000000
0.079129 0.133716 0.000000
0.149531 0.143911 0.000000
0.203713 0.162325 0.000000
0.246005 0.184891 0.000000
0.265907 0.208688 0.000000
0.274488 0.232661 0.000000
0.274041 0.255954 0.000000
0.266855 0.280359 0.000000
0.251236 0.308125 0.000000
0.234649 0.343002 0.000000
0.213421 0.387351 0.000000
0.196321 0.439230 0.000000
0.176303 0.505981 0.000000
0.165000 0.579564 0.000000
0.161447 0.674103 0.000000
0.184891 0.753995 0.000000
0.209145 0.857294 0.000000
0.292005 0.920626 0.000000
0.505137 0.973622 0.000000
1.000000 0.983187 0.000000
0.000000 0.175174 0.000000
0.044186 0.179169 0.000000
0.083451 0.185837 0.000000
0.115122 0.196705 0.000000
0.142706 0.209145 0.000000
0.162498 0.225724 0.000000
0.175252 0.247675 0.000000
0.180432 0.274971 0.000000
0.178759 0.307795 0.000000
[...]
POINT_DATA 2205 
VECTORS pos float 
0.000000 0.000000 0.000000
0.520861 0.000000 0.000000
0.758658 0.000000 0.000000
0.824826 0.000000 0.000000
0.870858 0.000000 0.000000
0.895291 0.000000 0.000000
0.913746 0.000000 0.000000
0.928398 0.000000 0.000000
0.939823 0.000000 0.000000
0.948692 0.000000 0.000000
0.956017 0.000000 0.000000
0.962247 0.000000 0.000000
0.967438 0.000000 0.000000
0.971795 0.000000 0.000000
0.975739 0.000000 0.000000
0.979503 0.000000 0.000000
0.983187 0.000000 0.000000
0.987143 0.000000 0.000000
0.991222 0.000000 0.000000
0.995568 0.000000 0.000000
1.000000 0.000000 0.000000
0.000000 0.004432 0.000000
0.518517 0.006910 0.000000
0.752694 0.024317 0.000000
0.820831 0.044186 0.000000
0.866284 0.079129 0.000000
0.890151 0.115681 0.000000
0.908126 0.150779 0.000000
0.920446 0.194374 0.000000
0.929529 0.240475 0.000000
0.936522 0.283361 0.000000
0.942611 0.323422 0.000000
0.948088 0.361858 0.000000
0.952912 0.399272 0.000000
0.957816 0.430781 0.000000
0.962762 0.457086 0.000000
0.968000 0.478963 0.000000
0.973622 0.494863 0.000000
0.979836 0.505958 0.000000
0.986350 0.512763 0.000000
0.993090 0.518517 0.000000
1.000000 0.520861 0.000000
0.000000 0.008778 0.000000
0.512763 0.013650 0.000000
0.741455 0.045966 0.000000
0.814163 0.083451 0.000000
0.856089 0.149531 0.000000
0.879129 0.210710 0.000000
0.894119 0.279532 0.000000
0.901882 0.352109 0.000000
0.904710 0.421209 0.000000
0.906274 0.477313 0.000000
0.906235 0.526690 0.000000
0.904529 0.569960 0.000000
0.901740 0.607845 0.000000
0.901084 0.639479 0.000000
0.903535 0.665919 0.000000
0.909767 0.688960 0.000000
0.920626 0.707995 0.000000
0.935917 0.725302 0.000000
0.954034 0.741455 0.000000
0.975683 0.752694 0.000000
1.000000 0.758658 0.000000
0.000000 0.012857 0.000000
0.505958 0.020164 0.000000
0.725302 0.064083 0.000000
0.803295 0.115122 0.000000
0.837675 0.203713 0.000000
0.860389 0.275964 0.000000
0.868775 0.359893 0.000000
0.867373 0.436898 0.000000
0.858822 0.506279 0.000000
0.851484 0.560306 0.000000
0.840657 0.610060 0.000000
0.830388 0.653129 0.000000
0.821241 0.692205 0.000000
0.819568 0.725029 0.000000
0.824748 0.752325 0.000000
0.837502 0.774276 0.000000
0.857294 0.790855 0.000000
0.884878 0.803295 0.000000
0.916549 0.814163 0.000000
0.955814 0.820831 0.000000
1.000000 0.824826 0.000000
0.000000 0.016813 0.000000
0.494863 0.026378 0.000000
0.707995 0.079374 0.000000
0.790855 0.142706 0.000000
0.815109 0.246005 0.000000
0.838553 0.325897 0.000000
0.835000 0.420436 0.000000
0.823697 0.494019 0.000000
0.803679 0.560770 0.000000
0.786579 0.612649 0.000000
0.765351 0.656998 0.000000
0.748764 0.691875 0.000000
0.733145 0.719641 0.000000
0.725959 0.744046 0.000000
0.725512 0.767339 0.000000
0.734093 0.791312 0.000000
0.753995 0.815109 0.000000
0.796287 0.837675 0.000000
0.850469 0.856089 0.000000
0.920871 0.866284 0.000000
1.000000 0.870858 0.000000
0.000000 0.020497 0.000000
0.478963 0.032000 0.000000
0.688960 0.090233 0.000000
0.774276 0.162498 0.000000
0.791312 0.265907 0.000000
0.813854 0.352110 0.000000
0.800807 0.440166 0.000000
0.782633 0.510394 0.000000
0.755796 0.570434 0.000000
0.730290 0.618360 0.000000
0.700927 0.658912 0.000000
0.672611 0.693837 0.000000
0.646400 0.725278 0.000000
0.633913 0.756840 0.000000
0.633406 0.786373 0.000000
0.647890 0.813854 0.000000
0.674103 0.838553 0.000000
0.724036 0.860389 0.000000
0.789290 0.879129 0.000000
0.884319 0.890151 0.000000
1.000000 0.895291 0.000000
0.000000 0.024261 0.000000
0.457086 0.037238 0.000000
0.665919 0.096465 0.000000
0.752325 0.175252 0.000000
0.767339 0.274488 0.000000
0.786373 0.366594 0.000000
0.765602 0.446341 0.000000
0.742142 0.513624 0.000000
0.707758 0.567894 0.000000
0.676549 0.611613 0.000000
0.641237 0.647150 0.000000
0.609783 0.677678 0.000000
0.581084 0.704421 0.000000
0.563065 0.734434 0.000000
0.553659 0.765602 0.000000
0.559834 0.800807 0.000000
0.579564 0.835000 0.000000
0.640107 0.868775 0.000000
0.720468 0.894119 0.000000
0.849221 0.908126 0.000000
1.000000 0.913746 0.000000
0.000000 0.028205 0.000000
0.430781 0.042184 0.000000
0.639479 0.098916 0.000000
0.725029 0.180432 0.000000
0.744046 0.274041 0.000000
0.756840 0.366087 0.000000
0.734434 0.436935 0.000000
0.706374 0.501138 0.000000
0.668452 0.548542 0.000000
0.632898 0.588480 0.000000
0.593680 0.619376 0.000000
0.556277 0.646899 0.000000
0.521690 0.673041 0.000000
0.498862 0.706374 0.000000
0.486376 0.742142 0.000000
0.489606 0.782633 0.000000
0.505981 0.823697 0.000000
0.563102 0.867373 0.000000
0.647891 0.901882 0.000000
0.805626 0.920446 0.000000
1.000000 0.928398 0.000000
0.000000 0.032562 0.000000
0.399272 0.047088 0.000000
0.607845 0.098260 0.000000
0.692205 0.178759 0.000000
0.719641 0.266855 0.000000
0.725278 0.353600 0.000000
0.704421 0.418916 0.000000
0.673041 0.478310 0.000000
0.632671 0.521320 0.000000
0.593936 0.557282 0.000000
0.552408 0.583326 0.000000
0.514621 0.608360 0.000000
0.478680 0.632671 0.000000
0.451458 0.668452 0.000000
0.432106 0.707758 0.000000
0.429566 0.755796 0.000000
0.439230 0.803679 0.000000
0.493721 0.858822 0.000000
0.578791 0.904710 0.000000
0.759525 0.929529 0.000000
1.000000 0.939823 0.000000
0.000000 0.037753 0.000000
0.361858 0.051912 0.000000
0.569960 0.095471 0.000000
0.653129 0.169612 0.000000
0.691875 0.251236 0.000000
0.693837 0.327389 0.000000
0.677678 0.390217 0.000000
0.646899 0.443723 0.000000
0.608360 0.485379 0.000000
0.567374 0.517981 0.000000
0.524034 0.542635 0.000000
0.482019 0.567374 0.000000
0.442718 0.593936 0.000000
0.411520 0.632898 0.000000
0.388387 0.676549 0.000000
0.381640 0.730290 0.000000
0.387351 0.786579 0.000000
0.439694 0.851484 0.000000
0.522687 0.906274 0.000000
0.716639 0.936522 0.000000
1.000000 0.948692 0.000000
0.000000 0.043983 0.000000
0.323422 0.057389 0.000000
0.526690 0.093765 0.000000
0.610060 0.159343 0.000000
0.656998 0.234649 0.000000
0.658912 0.299073 0.000000
0.647150 0.358763 0.000000
0.619376 0.406320 0.000000
0.583326 0.447592 0.000000
0.542635 0.475966 0.000000
0.500000 0.500000 0.000000
0.457365 0.524034 0.000000
0.416674 0.552408 0.000000
0.380624 0.593680 0.000000
0.352850 0.641237 0.000000
0.341088 0.700927 0.000000
0.343002 0.765351 0.000000
0.389940 0.840657 0.000000
0.473310 0.906235 0.000000
0.676578 0.942611 0.000000
1.000000 0.956017 0.000000
0.000000 0.051308 0.000000
0.283361 0.063478 0.000000
0.477313 0.093726 0.000000
0.560306 0.148516 0.000000
0.612649 0.213421 0.000000
0.618360 0.269710 0.000000
0.611613 0.323451 0.000000
0.588480 0.367102 0.000000
0.557282 0.406064 0.000000
0.517981 0.432626 0.000000
0.475966 0.457365 0.000000
0.432626 0.482019 0.000000
0.391640 0.514621 0.000000
0.353101 0.556277 0.000000
0.322322 0.609783 0.000000
0.306163 0.672611 0.000000
0.308125 0.748764 0.000000
0.346871 0.830388 0.000000
0.430040 0.904529 0.000000
0.638142 0.948088 0.000000
1.000000 0.962247 0.000000
0.000000 0.060177 0.000000
0.240475 0.070471 0.000000
0.421209 0.095290 0.000000
0.506279 0.141178 0.000000
0.560770 0.196321 0.000000
0.570434 0.244204 0.000000
0.567894 0.292242 0.000000
0.548542 0.331548 0.000000
0.521320 0.367329 0.000000
0.485379 0.391640 0.000000
0.447592 0.416674 0.000000
0.406064 0.442718 0.000000
0.367329 0.478680 0.000000
0.326959 0.521690 0.000000
0.295579 0.581084 0.000000
0.274722 0.646400 0.000000
0.280359 0.733145 0.000000
0.307795 0.821241 0.000000
0.392155 0.901740 0.000000
0.600728 0.952912 0.000000
1.000000 0.967438 0.000000
0.000000 0.071602 0.000000
0.194374 0.079554 0.000000
0.352109 0.098118 0.000000
0.436898 0.132627 0.000000
0.494019 0.176303 0.000000
0.510394 0.217367 0.000000
0.513624 0.257858 0.000000
0.501138 0.293626 0.000000
0.478310 0.326959 0.000000
0.443723 0.353101 0.000000
0.406320 0.380624 0.000000
0.367102 0.411520 0.000000
0.331548 0.451458 0.000000
0.293626 0.498862 0.000000
0.265566 0.563065 0.000000
0.243160 0.633913 0.000000
0.255954 0.725959 0.000000
0.274971 0.819568 0.000000
0.360521 0.901084 0.000000
0.569219 0.957816 0.000000
1.000000 0.971795 0.000000
0.000000 0.086254 0.000000
0.150779 0.091874 0.000000
0.279532 0.105881 0.000000
0.359893 0.131225 0.000000
0.420436 0.165000 0.000000
0.440166 0.199193 0.000000
0.446341 0.234398 0.000000
0.436935 0.265566 0.000000
0.418916 0.295579 0.000000
0.390217 0.322322 0.000000
0.358763 0.352850 0.000000
0.323451 0.388387 0.000000
0.292242 0.432106 0.000000
0.257858 0.486376 0.000000
0.234398 0.553659 0.000000
0.213627 0.633406 0.000000
0.232661 0.725512 0.000000
0.247675 0.824748 0.000000
0.334081 0.903535 0.000000
0.542914 0.962762 0.000000
1.000000 0.975739 0.000000
0.000000 0.104709 0.000000
0.115681 0.109849 0.000000
0.210710 0.120871 0.000000
0.275964 0.139611 0.000000
0.325897 0.161447 0.000000
0.352110 0.186146 0.000000
0.366594 0.213627 0.000000
0.366087 0.243160 0.000000
0.353600 0.274722 0.000000
0.327389 0.306163 0.000000
0.299073 0.341088 0.000000
0.269710 0.381640 0.000000
0.244204 0.429566 0.000000
0.217367 0.489606 0.000000
0.199193 0.559834 0.000000
0.186146 0.647890 0.000000
0.208688 0.734093 0.000000
0.225724 0.837502 0.000000
0.311040 0.909767 0.000000
0.521037 0.968000 0.000000
1.000000 0.979503 0.000000
0.000000 0.129142 0.000000
0.079129 0.133716 0.000000
0.149531 0.143911 0.000000
0.203713 0.162325 0.000000
0.246005 0.184891 0.000000
0.265907 0.208688 0.000000
0.274488 0.232661 0.000000
0.274041 0.255954 0.000000
0.266855 0.280359 0.000000
0.251236 0.308125 0.000000
0.234649 0.343002 0.000000
0.213421 0.387351 0.000000
0.196321 0.439230 0.000000
0.176303 0.505981 0.000000
0.165000 0.579564 0.000000
0.161447 0.674103 0.000000
0.184891 0.753995 0.000000
0.209145 0.857294 0.000000
0.292005 0.920626 0.000000
0.505137 0.973622 0.000000
1.000000 0.983187 0.000000
0.000000 0.175174 0.000000
0.044186 0.179169 0.000000
0.083451 0.185837 0.000000
0.115122 0.196705 0.000000
0.142706 0.209145 0.000000
0.162498 0.225724 0.000000
0.175252 0.247675 0.000000
0.180432 0.274971 0.000000
0.178759 0.307795 0.000000
0.169612 0.346871 0.000000
0.159343 0.389940 0.000000
0.148516 0.439694 0.000000
0.141178 0.493721 0.000000
0.132627 0.563102 0.000000
0.131225 0.640107 0.000000
0.139611 0.724036 0.000000
0.162325 0.796287 0.000000
0.196705 0.884878 0.000000
0.274698 0.935917 0.000000
0.494042 0.979836 0.000000
1.000000 0.987143 0.000000
0.000000 0.241342 0.000000
0.024317 0.247306 0.000000
0.045966 0.258545 0.000000
0.064083 0.274698 0.000000
0.079374 0.292005 0.000000
0.090233 0.311040 0.000000
0.096465 0.334081 0.000000
0.098916 0.360521 0.000000
0.098260 0.392155 0.000000
0.095471 0.430040 0.000000
0.093765 0.473310 0.000000
0.093726 0.522687 0.000000
0.095290 0.578791 0.000000
0.098118 0.647891 0.000000
0.105881 0.720468 0.000000
0.120871 0.789290 0.000000
0.143911 0.850469 0.000000
0.185837 0.916549 0.000000
0.258545 0.954034 0.000000
0.487237 0.986350 0.000000
1.000000 0.991222 0.000000
0.000000 0.479139 0.000000
0.006910 0.481483 0.000000
0.013650 0.487237 0.000000
0.020164 0.494042 0.000000
0.026378 0.505137 0.000000
0.032000 0.521037 0.000000
0.037238 0.542914 0.000000
0.042184 0.569219 0.000000
0.047088 0.600728 0.000000
0.051912 0.638142 0.000000
0.057389 0.676578 0.000000
0.063478 0.716639 0.000000
0.070471 0.759525 0.000000
0.079554 0.805626 0.000000
0.091874 0.849221 0.000000
0.109849 0.884319 0.000000
0.133716 0.920871 0.000000
0.179169 0.955814 0.000000
0.247306 0.975683 0.000000
0.481483 0.993090 0.000000
1.000000 0.995568 0.000000
0.000000 1.000000 0.000000
0.004432 1.000000 0.000000
0.008778 1.000000 0.000000
0.012857 1.000000 0.000000
0.016813 1.000000 0.000000
0.020497 1.000000 0.000000
0.024261 1.000000 0.000000
0.028205 1.000000 0.000000
0.032562 1.000000 0.000000
0.037753 1.000000 0.000000
0.043983 1.000000 0.000000
0.051308 1.000000 0.000000
0.060177 1.000000 0.000000
0.071602 1.000000 0.000000
0.086254 1.000000 0.000000
0.104709 1.000000 0.000000
0.129142 1.000000 0.000000
0.175174 1.000000 0.000000
0.241342 1.000000 0.000000
0.479139 1.000000 0.000000
1.000000 1.000000 0.000000
0.000000 0.000000 0.082500
0.520861 0.000000 0.082500
0.758658 0.000000 0.082500
0.824826 0.000000 0.082500
0.870858 0.000000 0.082500
0.895291 0.000000 0.082500
0.913746 0.000000 0.082500
0.928398 0.000000 0.082500
0.939823 0.000000 0.082500
0.948692 0.000000 0.082500
0.956017 0.000000 0.082500
0.962247 0.000000 0.082500
0.967438 0.000000 0.082500
0.971795 0.000000 0.082500
0.975739 0.000000 0.082500
0.979503 0.000000 0.082500
0.983187 0.000000 0.082500
0.987143 0.000000 0.082500
0.991222 0.000000 0.082500
0.995568 0.000000 0.082500
1.000000 0.000000 0.082500
0.000000 0.004432 0.082500
0.518517 0.006910 0.082500
0.752694 0.024317 0.082500
0.820831 0.044186 0.082500
0.866284 0.079129 0.082500
0.890151 0.115681 0.082500
0.908126 0.150779 0.082500
0.920446 0.194374 0.082500
0.929529 0.240475 0.082500
0.936522 0.283361 0.082500
0.942611 0.323422 0.082500
0.948088 0.361858 0.082500
0.952912 0.399272 0.082500
0.957816 0.430781 0.082500
0.962762 0.457086 0.082500
0.968000 0.478963 0.082500
0.973622 0.494863 0.082500
0.979836 0.505958 0.082500
0.986350 0.512763 0.082500
0.993090 0.518517 0.082500
1.000000 0.520861 0.082500
0.000000 0.008778 0.082500
0.512763 0.013650 0.082500
0.741455 0.045966 0.082500
0.814163 0.083451 0.082500
0.856089 0.149531 0.082500
0.879129 0.210710 0.082500
0.894119 0.279532 0.082500
0.901882 0.352109 0.082500
0.904710 0.421209 0.082500
0.906274 0.477313 0.082500
0.906235 0.526690 0.082500
0.904529 0.569960 0.082500
0.901740 0.607845 0.082500
0.901084 0.639479 0.082500
0.903535 0.665919 0.082500
0.909767 0.688960 0.082500
0.920626 0.707995 0.082500
0.935917 0.725302 0.082500
0.954034 0.741455 0.082500
0.975683 0.752694 0.082500
1.000000 0.758658 0.082500
0.000000 0.012857 0.082500
0.505958 0.020164 0.082500
0.725302 0.064083 0.082500
0.803295 0.115122 0.082500
0.837675 0.203713 0.082500
0.860389 0.275964 0.082500
0.868775 0.359893 0.082500
0.867373 0.436898 0.082500
0.858822 0.506279 0.082500
0.851484 0.560306 0.082500
0.840657 0.610060 0.082500
0.830388 0.653129 0.082500
0.821241 0.692205 0.082500
0.819568 0.725029 0.082500
0.824748 0.752325 0.082500
0.837502 0.774276 0.082500
0.857294 0.790855 0.082500
0.884878 0.803295 0.082500
0.916549 0.814163 0.082500
0.955814 0.820831 0.082500
1.000000 0.824826 0.082500
0.000000 0.016813 0.082500
0.494863 0.026378 0.082500
0.707995 0.079374 0.082500
0.790855 0.142706 0.082500
0.815109 0.246005 0.082500
0.838553 0.325897 0.082500
0.835000 0.420436 0.082500
0.823697 0.494019 0.082500
0.803679 0.560770 0.082500
0.786579 0.612649 0.082500
0.765351 0.656998 0.082500
0.748764 0.691875 0.082500
0.733145 0.719641 0.082500
0.725959 0.744046 0.082500
0.725512 0.767339 0.082500
0.734093 0.791312 0.082500
0.753995 0.815109 0.082500
0.796287 0.837675 0.082500
0.850469 0.856089 0.082500
0.920871 0.866284 0.082500
1.000000 0.870858 0.082500
0.000000 0.020497 0.082500
0.478963 0.032000 0.082500
0.688960 0.090233 0.082500
0.774276 0.162498 0.082500
0.791312 0.265907 0.082500
0.813854 0.352110 0.082500
0.800807 0.440166 0.082500
0.782633 0.510394 0.082500
0.755796 0.570434 0.082500
0.730290 0.618360 0.082500
0.700927 0.658912 0.082500
0.672611 0.693837 0.082500
0.646400 0.725278 0.082500
0.633913 0.756840 0.082500
0.633406 0.786373 0.082500
0.647890 0.813854 0.082500
0.674103 0.838553 0.082500
0.724036 0.860389 0.082500
0.789290 0.879129 0.082500
0.884319 0.890151 0.082500
1.000000 0.895291 0.082500
0.000000 0.024261 0.082500
0.457086 0.037238 0.082500
0.665919 0.096465 0.082500
0.752325 0.175252 0.082500
0.767339 0.274488 0.082500
0.786373 0.366594 0.082500
0.765602 0.446341 0.082500
0.742142 0.513624 0.082500
0.707758 0.567894 0.082500
0.676549 0.611613 0.082500
0.641237 0.647150 0.082500
0.609783 0.677678 0.082500
0.581084 0.704421 0.082500
0.563065 0.734434 0.082500
0.553659 0.765602 0.082500
0.559834 0.800807 0.082500
0.579564 0.835000 0.082500
0.640107 0.868775 0.082500
0.720468 0.894119 0.082500
0.849221 0.908126 0.082500
1.000000 0.913746 0.082500
0.000000 0.028205 0.082500
0.430781 0.042184 0.082500
0.639479 0.098916 0.082500
0.725029 0.180432 0.082500
0.744046 0.274041 0.082500
0.756840 0.366087 0.082500
0.734434 0.436935 0.082500
0.706374 0.501138 0.082500
0.668452 0.548542 0.082500
0.632898 0.588480 0.082500
0.593680 0.619376 0.082500
0.556277 0.646899 0.082500
0.521690 0.673041 0.082500
0.498862 0.706374 0.082500
0.486376 0.742142 0.082500
0.489606 0.782633 0.082500
0.505981 0.823697 0.082500
0.563102 0.867373 0.082500
0.647891 0.901882 0.082500
0.805626 0.920446 0.082500
1.000000 0.928398 0.082500
0.000000 0.032562 0.082500
0.399272 0.047088 0.082500
0.607845 0.098260 0.082500
0.692205 0.178759 0.082500
0.719641 0.266855 0.082500
0.725278 0.353600 0.082500
0.704421 0.418916 0.082500
0.673041 0.478310 0.082500
0.632671 0.521320 0.082500
0.593936 0.557282 0.082500
0.552408 0.583326 0.082500
0.514621 0.608360 0.082500
0.478680 0.632671 0.082500
0.451458 0.668452 0.082500
0.432106 0.707758 0.082500
0.429566 0.755796 0.082500
0.439230 0.803679 0.082500
0.493721 0.858822 0.082500
0.578791 0.904710 0.082500
0.759525 0.929529 0.082500
1.000000 0.939823 0.082500
0.000000 0.037753 0.082500
0.361858 0.051912 0.082500
0.569960 0.095471 0.082500
0.653129 0.169612 0.082500
0.691875 0.251236 0.082500
0.693837 0.327389 0.082500
0.677678 0.390217 0.082500
0.646899 0.443723 0.082500
0.608360 0.485379 0.082500
0.567374 0.517981 0.082500
0.524034 0.542635 0.082500
0.482019 0.567374 0.082500
0.442718 0.593936 0.082500
0.411520 0.632898 0.082500
0.388387 0.676549 0.082500
0.381640 0.730290 0.082500
0.387351 0.786579 0.082500
0.439694 0.851484 0.082500
0.522687 0.906274 0.082500
0.716639 0.936522 0.082500
1.000000 0.948692 0.082500
0.000000 0.043983 0.082500
0.323422 0.057389 0.082500
0.526690 0.093765 0.082500
0.610060 0.159343 0.082500
0.656998 0.234649 0.082500
0.658912 0.299073 0.082500
0.647150 0.358763 0.082500
0.619376 0.406320 0.082500
0.583326 0.447592 0.082500
0.542635 0.475966 0.082500
0.500000 0.500000 0.082500
0.457365 0.524034 0.082500
0.416674 0.552408 0.082500
0.380624 0.593680 0.082500
0.352850 0.641237 0.082500
0.341088 0.700927 0.082500
0.343002 0.765351 0.082500
0.389940 0.840657 0.082500
0.473310 0.906235 0.082500
0.676578 0.942611 0.082500
1.000000 0.956017 0.082500
0.000000 0.051308 0.082500
0.283361 0.063478 0.082500
0.477313 0.093726 0.082500
0.560306 0.148516 0.082500
0.612649 0.213421 0.082500
0.618360 0.269710 0.082500
0.611613 0.323451 0.082500
0.588480 0.367102 0.082500
0.557282 0.406064 0.082500
0.517981 0.432626 0.082500
0.475966 0.457365 0.082500
0.432626 0.482019 0.082500
0.391640 0.514621 0.082500
0.353101 0.556277 0.082500
0.322322 0.609783 0.082500
0.306163 0.672611 0.082500
0.308125 0.748764 0.082500
0.346871 0.830388 0.082500
0.430040 0.904529 0.082500
0.638142 0.948088 0.082500
1.000000 0.962247 0.082500
0.000000 0.060177 0.082500
0.240475 0.070471 0.082500
0.421209 0.095290 0.082500
0.506279 0.141178 0.082500
0.560770 0.196321 0.082500
0.570434 0.244204 0.082500
0.567894 0.292242 0.082500
0.548542 0.331548 0.082500
0.521320 0.367329 0.082500
0.485379 0.391640 0.082500
0.447592 0.416674 0.082500
0.406064 0.442718 0.082500
0.367329 0.478680 0.082500
0.326959 0.521690 0.082500
0.295579 0.581084 0.082500
0.274722 0.646400 0.082500
0.280359 0.733145 0.082500
0.307795 0.821241 0.082500
0.392155 0.901740 0.082500
0.600728 0.952912 0.082500
1.000000 0.967438 0.082500
0.000000 0.071602 0.082500
0.194374 0.079554 0.082500
0.352109 0.098118 0.082500
0.436898 0.132627 0.082500
0.494019 0.176303 0.082500
0.510394 0.217367 0.082500
0.513624 0.257858 0.082500
0.501138 0.293626 0.082500
0.478310 0.326959 0.082500
0.443723 0.353101 0.082500
0.406320 0.380624 0.082500
0.367102 0.411520 0.082500
0.331548 0.451458 0.082500
0.293626 0.498862 0.082500
0.265566 0.563065 0.082500
0.243160 0.633913 0.082500
0.255954 0.725959 0.082500
0.274971 0.819568 0.082500
0.360521 0.901084 0.082500
0.569219 0.957816 0.082500
1.000000 0.971795 0.082500
0.000000 0.086254 0.082500
0.150779 0.091874 0.082500
0.279532 0.105881 0.082500
0.359893 0.131225 0.082500