# vtk DataFile Version 2.0
Mesh for Fierro
ASCII 
DATASET UNSTRUCTURED_GRID

POINTS 2205 float
0.000000 0.000000 0.000000
0.087406 0.000000 0.000000
0.172482 0.000000 0.000000
0.254597 0.000000 0.000000
0.331666 0.000000 0.000000
0.400919 0.000000 0.000000
0.464751 0.000000 0.000000
0.522569 0.000000 0.000000
0.575702 0.000000 0.000000
0.624995 0.000000 0.000000
0.670693 0.000000 0.000000
0.711958 0.000000 0.000000
0.749946 0.000000 0.000000
0.786635 0.000000 0.000000
0.820698 0.000000 0.000000
0.853094 0.000000 0.000000
0.884216 0.000000 0.000000
0.913650 0.000000 0.000000
0.943672 0.000000 0.000000
0.971783 0.000000 0.000000
1.000000 0.000000 0.000000
0.000000 0.028217 0.000000
0.087040 0.028622 0.000000
0.171723 0.029547 0.000000
0.253427 0.031330 0.000000
0.330658 0.033843 0.000000
0.399605 0.037199 0.000000
0.463161 0.040856 0.000000
0.520702 0.044730 0.000000
0.573787 0.048962 0.000000
0.622938 0.053343 0.000000
0.668561 0.057794 0.000000
0.709867 0.062322 0.000000
0.747916 0.066904 0.000000
0.784557 0.071138 0.000000
0.818744 0.075072 0.000000
0.851409 0.078626 0.000000
0.882710 0.081641 0.000000
0.912534 0.084129 0.000000
0.942681 0.085950 0.000000
0.971378 0.087040 0.000000
1.000000 0.087406 0.000000
0.000000 0.056328 0.000000
0.085950 0.057319 0.000000
0.169606 0.059649 0.000000
0.250384 0.063745 0.000000
0.326729 0.068413 0.000000
0.394954 0.074512 0.000000
0.457987 0.081454 0.000000
0.514993 0.089109 0.000000
0.567659 0.097336 0.000000
0.616579 0.105959 0.000000
0.662058 0.114765 0.000000
0.703416 0.123534 0.000000
0.741583 0.132506 0.000000
0.778617 0.140870 0.000000
0.813333 0.148443 0.000000
0.846769 0.155319 0.000000
0.878582 0.161307 0.000000
0.909553 0.166202 0.000000
0.940351 0.169606 0.000000
0.970453 0.171723 0.000000
1.000000 0.172482 0.000000
0.000000 0.086350 0.000000
0.084129 0.087466 0.000000
0.166202 0.090447 0.000000
0.245474 0.095485 0.000000
0.320618 0.102154 0.000000
0.387572 0.111255 0.000000
0.449586 0.121549 0.000000
0.505903 0.132853 0.000000
0.558150 0.144920 0.000000
0.606569 0.157579 0.000000
0.651727 0.170647 0.000000
0.693143 0.183590 0.000000
0.731394 0.196563 0.000000
0.768884 0.208733 0.000000
0.804319 0.219832 0.000000
0.838909 0.229835 0.000000
0.871450 0.238348 0.000000
0.904515 0.245474 0.000000
0.936255 0.250384 0.000000
0.968670 0.253427 0.000000
1.000000 0.254597 0.000000
0.000000 0.115784 0.000000
0.081641 0.117290 0.000000
0.161307 0.121418 0.000000
0.238348 0.128550 0.000000
0.311694 0.137057 0.000000
0.376941 0.148392 0.000000
0.437702 0.161553 0.000000
0.493302 0.176216 0.000000
0.545143 0.191920 0.000000
0.592910 0.208310 0.000000
0.637598 0.225190 0.000000
0.679133 0.241892 0.000000
0.717828 0.258558 0.000000
0.756008 0.273968 0.000000
0.792545 0.288264 0.000000
0.828612 0.300891 0.000000
0.862943 0.311694 0.000000
0.897846 0.320618 0.000000
0.931587 0.326729 0.000000
0.966157 0.330658 0.000000
1.000000 0.331666 0.000000
0.000000 0.146906 0.000000
0.078626 0.148591 0.000000
0.155319 0.153231 0.000000
0.229835 0.161091 0.000000
0.300891 0.171388 0.000000
0.363913 0.184950 0.000000
0.422995 0.200533 0.000000
0.477718 0.217685 0.000000
0.529064 0.236044 0.000000
0.576022 0.255144 0.000000
0.620076 0.274890 0.000000
0.661635 0.294371 0.000000
0.700775 0.313716 0.000000
0.739680 0.331982 0.000000
0.777396 0.348846 0.000000
0.815050 0.363913 0.000000
0.851608 0.376941 0.000000
0.888745 0.387572 0.000000
0.925488 0.394954 0.000000
0.962801 0.399605 0.000000
1.000000 0.400919 0.000000
0.000000 0.179302 0.000000
0.075072 0.181256 0.000000
0.148443 0.186667 0.000000
0.219832 0.195681 0.000000
0.288264 0.207455 0.000000
0.348846 0.222604 0.000000
0.405970 0.239964 0.000000
0.459326 0.259123 0.000000
0.509769 0.279653 0.000000
0.555847 0.301027 0.000000
0.599474 0.323107 0.000000
0.641132 0.344900 0.000000
0.680886 0.366523 0.000000
0.720841 0.387045 0.000000
0.760036 0.405970 0.000000
0.799467 0.422995 0.000000
0.838447 0.437702 0.000000
0.878451 0.449586 0.000000
0.918546 0.457987 0.000000
0.959144 0.463161 0.000000
1.000000 0.464751 0.000000
0.000000 0.213365 0.000000
0.071138 0.215443 0.000000
0.140870 0.221383 0.000000
0.208733 0.231116 0.000000
0.273968 0.243992 0.000000
0.331982 0.260320 0.000000
0.387045 0.279159 0.000000
0.438866 0.299936 0.000000
0.488293 0.322285 0.000000
0.533572 0.345629 0.000000
0.576685 0.369709 0.000000
0.618356 0.393428 0.000000
0.658751 0.416715 0.000000
0.700064 0.438866 0.000000
0.740877 0.459326 0.000000
0.782315 0.477718 0.000000
0.823784 0.493302 0.000000
0.867147 0.505903 0.000000
0.910891 0.514993 0.000000
0.955270 0.520702 0.000000
1.000000 0.522569 0.000000
0.000000 0.250054 0.000000
0.066904 0.252084 0.000000
0.132506 0.258417 0.000000
0.196563 0.268606 0.000000
0.258558 0.282172 0.000000
0.313716 0.299225 0.000000
0.366523 0.319114 0.000000
0.416715 0.341249 0.000000
0.465220 0.365128 0.000000
0.509454 0.389984 0.000000
0.552062 0.415579 0.000000
0.593800 0.440721 0.000000
0.634872 0.465220 0.000000
0.677715 0.488293 0.000000
0.720347 0.509769 0.000000
0.763956 0.529064 0.000000
0.808080 0.545143 0.000000
0.855080 0.558150 0.000000
0.902664 0.567659 0.000000
0.951038 0.573787 0.000000
1.000000 0.575702 0.000000
0.000000 0.288042 0.000000
0.062322 0.290133 0.000000
0.123534 0.296584 0.000000
0.183590 0.306857 0.000000
0.241892 0.320867 0.000000
0.294371 0.338365 0.000000
0.344900 0.358868 0.000000
0.393428 0.381644 0.000000
0.440721 0.406200 0.000000
0.484135 0.431761 0.000000
0.526386 0.458059 0.000000
0.568239 0.484135 0.000000
0.610016 0.509454 0.000000
0.654371 0.533572 0.000000
0.698973 0.555847 0.000000
0.744856 0.576022 0.000000
0.791690 0.592910 0.000000
0.842421 0.606569 0.000000
0.894041 0.616579 0.000000
0.946657 0.622938 0.000000
1.000000 0.624995 0.000000
0.000000 0.329307 0.000000
0.057794 0.331439 0.000000
0.114765 0.337942 0.000000
0.170647 0.348273 0.000000
0.225190 0.362402 0.000000
0.274890 0.379924 0.000000
0.323107 0.400526 0.000000
0.369709 0.423315 0.000000
0.415579 0.447938 0.000000
0.458059 0.473614 0.000000
0.500000 0.500000 0.000000
0.541941 0.526386 0.000000
0.584421 0.552062 0.000000
0.630291 0.576685 0.000000
0.676893 0.599474 0.000000
0.725110 0.620076 0.000000
0.774810 0.637598 0.000000
0.829353 0.651727 0.000000
0.885235 0.662058 0.000000
0.942206 0.668561 0.000000
1.000000 0.670693 0.000000
0.000000 0.375005 0.000000
0.053343 0.377062 0.000000
0.105959 0.383421 0.000000
0.157579 0.393431 0.000000
0.208310 0.407090 0.000000
0.255144 0.423978 0.000000
0.301027 0.444153 0.000000
0.345629 0.466428 0.000000
0.389984 0.490546 0.000000
0.431761 0.515865 0.000000
0.473614 0.541941 0.000000
0.515865 0.568239 0.000000
0.559279 0.593800 0.000000
0.606572 0.618356 0.000000
0.655100 0.641132 0.000000
0.705629 0.661635 0.000000
0.758108 0.679133 0.000000
0.816410 0.693143 0.000000
0.876466 0.703416 0.000000
0.937678 0.709867 0.000000
1.000000 0.711958 0.000000
0.000000 0.424298 0.000000
0.048962 0.426213 0.000000
0.097336 0.432341 0.000000
0.144920 0.441850 0.000000
0.191920 0.454857 0.000000
0.236044 0.470936 0.000000
0.279653 0.490231 0.000000
0.322285 0.511707 0.000000
0.365128 0.534780 0.000000
0.406200 0.559279 0.000000
0.447938 0.584421 0.000000
0.490546 0.610016 0.000000
0.534780 0.634872 0.000000
0.583285 0.658751 0.000000
0.633477 0.680886 0.000000
0.686284 0.700775 0.000000
0.741442 0.717828 0.000000
0.803437 0.731394 0.000000
0.867494 0.741583 0.000000
0.933096 0.747916 0.000000
1.000000 0.749946 0.000000
0.000000 0.477431 0.000000
0.044730 0.479298 0.000000
0.089109 0.485007 0.000000
0.132853 0.494097 0.000000
0.176216 0.506698 0.000000
0.217685 0.522282 0.000000
0.259123 0.540674 0.000000
0.299936 0.561134 0.000000
0.341249 0.583285 0.000000
0.381644 0.606572 0.000000
0.423315 0.630291 0.000000
0.466428 0.654371 0.000000
0.511707 0.677715 0.000000
0.561134 0.700064 0.000000
0.612955 0.720841 0.000000
0.668018 0.739680 0.000000
0.726032 0.756008 0.000000
0.791267 0.768884 0.000000
0.859130 0.778617 0.000000
0.928862 0.784557 0.000000
1.000000 0.786635 0.000000
0.000000 0.535249 0.000000
0.040856 0.536839 0.000000
0.081454 0.542013 0.000000
0.121549 0.550414 0.000000
0.161553 0.562298 0.000000
0.200533 0.577005 0.000000
0.239964 0.594030 0.000000
0.279159 0.612955 0.000000
0.319114 0.633477 0.000000
0.358868 0.655100 0.000000
0.400526 0.676893 0.000000
0.444153 0.698973 0.000000
0.490231 0.720347 0.000000
0.540674 0.740877 0.000000
0.594030 0.760036 0.000000
0.651154 0.777396 0.000000
0.711736 0.792545 0.000000
0.780168 0.804319 0.000000
0.851557 0.813333 0.000000
0.924928 0.818744 0.000000
1.000000 0.820698 0.000000
0.000000 0.599081 0.000000
0.037199 0.600395 0.000000
0.074512 0.605046 0.000000
0.111255 0.612428 0.000000
0.148392 0.623059 0.000000
0.184950 0.636087 0.000000
0.222604 0.651154 0.000000
0.260320 0.668018 0.000000
0.299225 0.686284 0.000000
0.338365 0.705629 0.000000
0.379924 0.725110 0.000000
0.423978 0.744856 0.000000
0.470936 0.763956 0.000000
0.522282 0.782315 0.000000
0.577005 0.799467 0.000000
0.636087 0.815050 0.000000
0.699109 0.828612 0.000000
0.770165 0.838909 0.000000
0.844681 0.846769 0.000000
0.921374 0.851409 0.000000
1.000000 0.853094 0.000000
0.000000 0.668334 0.000000
0.033843 0.669342 0.000000
0.068413 0.673271 0.000000
0.102154 0.679382 0.000000
0.137057 0.688306 0.000000
0.171388 0.699109 0.000000
0.207455 0.711736 0.000000
0.243992 0.726032 0.000000
0.282172 0.741442 0.000000
0.320867 0.758108 0.000000
0.362402 0.774810 0.000000
0.407090 0.791690 0.000000
0.454857 0.808080 0.000000
0.506698 0.823784 0.000000
0.562298 0.838447 0.000000
0.623059 0.851608 0.000000
0.688306 0.862943 0.000000
0.761652 0.871450 0.000000
0.838693 0.878582 0.000000
0.918359 0.882710 0.000000
1.000000 0.884216 0.000000
0.000000 0.745403 0.000000
0.031330 0.746573 0.000000
0.063745 0.749616 0.000000
0.095485 0.754526 0.000000
0.128550 0.761652 0.000000
0.161091 0.770165 0.000000
0.195681 0.780168 0.000000
0.231116 0.791267 0.000000
0.268606 0.803437 0.000000
[...]
POINT_DATA 2205 
VECTORS pos float 
0.000000 0.000000 0.000000
0.087406 0.000000 0.000000
0.172482 0.000000 0.000000
0.254597 0.000000 0.000000
0.331666 0.000000 0.000000
0.400919 0.000000 0.000000
0.464751 0.000000 0.000000
0.522569 0.000000 0.000000
0.575702 0.000000 0.000000
0.624995 0.000000 0.000000
0.670693 0.000000 0.000000
0.711958 0.000000 0.000000
0.749946 0.000000 0.000000
0.786635 0.000000 0.000000
0.820698 0.000000 0.000000
0.853094 0.000000 0.000000
0.884216 0.000000 0.000000
0.913650 0.000000 0.000000
0.943672 0.000000 0.000000
0.971783 0.000000 0.000000
1.000000 0.000000 0.000000
0.000000 0.028217 0.000000
0.087040 0.028622 0.000000
0.171723 0.029547 0.000000
0.253427 0.031330 0.000000
0.330658 0.033843 0.000000
0.399605 0.037199 0.000000
0.463161 0.040856 0.000000
0.520702 0.044730 0.000000
0.573787 0.048962 0.000000
0.622938 0.053343 0.000000
0.668561 0.057794 0.000000
0.709867 0.062322 0.000000
0.747916 0.066904 0.000000
0.784557 0.071138 0.000000
0.818744 0.075072 0.000000
0.851409 0.078626 0.000000
0.882710 0.081641 0.000000
0.912534 0.084129 0.000000
0.942681 0.085950 0.000000
0.971378 0.087040 0.000000
1.000000 0.087406 0.000000
0.000000 0.056328 0.000000
0.085950 0.057319 0.000000
0.169606 0.059649 0.000000
0.250384 0.063745 0.000000
0.326729 0.068413 0.000000
0.394954 0.074512 0.000000
0.457987 0.081454 0.000000
0.514993 0.089109 0.000000
0.567659 0.097336 0.000000
0.616579 0.105959 0.000000
0.662058 0.114765 0.000000
0.703416 0.123534 0.000000
0.741583 0.132506 0.000000
0.778617 0.140870 0.000000
0.813333 0.148443 0.000000
0.846769 0.155319 0.000000
0.878582 0.161307 0.000000
0.909553 0.166202 0.000000
0.940351 0.169606 0.000000
0.970453 0.171723 0.000000
1.000000 0.172482 0.000000
0.000000 0.086350 0.000000
0.084129 0.087466 0.000000
0.166202 0.090447 0.000000
0.245474 0.095485 0.000000
0.320618 0.102154 0.000000
0.387572 0.111255 0.000000
0.449586 0.121549 0.000000
0.505903 0.132853 0.000000
0.558150 0.144920 0.000000
0.606569 0.157579 0.000000
0.651727 0.170647 0.000000
0.693143 0.183590 0.000000
0.731394 0.196563 0.000000
0.768884 0.208733 0.000000
0.804319 0.219832 0.000000
0.838909 0.229835 0.000000
0.871450 0.238348 0.000000
0.904515 0.245474 0.000000
0.936255 0.250384 0.000000
0.968670 0.253427 0.000000
1.000000 0.254597 0.000000
0.000000 0.115784 0.000000
0.081641 0.117290 0.000000
0.161307 0.121418 0.000000
0.238348 0.128550 0.000000
0.311694 0.137057 0.000000
0.376941 0.148392 0.000000
0.437702 0.161553 0.000000
0.493302 0.176216 0.000000
0.545143 0.191920 0.000000
0.592910 0.208310 0.000000
0.637598 0.225190 0.000000
0.679133 0.241892 0.000000
0.717828 0.258558 0.000000
0.756008 0.273968 0.000000
0.792545 0.288264 0.000000
0.828612 0.300891 0.000000
0.862943 0.311694 0.000000
0.897846 0.320618 0.000000
0.931587 0.326729 0.000000
0.966157 0.330658 0.000000
1.000000 0.331666 0.000000
0.000000 0.146906 0.000000
0.078626 0.148591 0.000000
0.155319 0.153231 0.000000
0.229835 0.161091 0.000000
0.300891 0.171388 0.000000
0.363913 0.184950 0.000000
0.422995 0.200533 0.000000
0.477718 0.217685 0.000000
0.529064 0.236044 0.000000
0.576022 0.255144 0.000000
0.620076 0.274890 0.000000
0.661635 0.294371 0.000000
0.700775 0.313716 0.000000
0.739680 0.331982 0.000000
0.777396 0.348846 0.000000
0.815050 0.363913 0.000000
0.851608 0.376941 0.000000
0.888745 0.387572 0.000000
0.925488 0.394954 0.000000
0.962801 0.399605 0.000000
1.000000 0.400919 0.000000
0.000000 0.179302 0.000000
0.075072 0.181256 0.000000
0.148443 0.186667 0.000000
0.219832 0.195681 0.000000
0.288264 0.207455 0.000000
0.348846 0.222604 0.000000
0.405970 0.239964 0.000000
0.459326 0.259123 0.000000
0.509769 0.279653 0.000000
0.555847 0.301027 0.000000
0.599474 0.323107 0.000000
0.641132 0.344900 0.000000
0.680886 0.366523 0.000000
0.720841 0.387045 0.000000
0.760036 0.405970 0.000000
0.799467 0.422995 0.000000
0.838447 0.437702 0.000000
0.878451 0.449586 0.000000
0.918546 0.457987 0.000000
0.959144 0.463161 0.000000
1.000000 0.464751 0.000000
0.000000 0.213365 0.000000
0.071138 0.215443 0.000000
0.140870 0.221383 0.000000
0.208733 0.231116 0.000000
0.273968 0.243992 0.000000
0.331982 0.260320 0.000000
0.387045 0.279159 0.000000
0.438866 0.299936 0.000000
0.488293 0.322285 0.000000
0.533572 0.345629 0.000000
0.576685 0.369709 0.000000
0.618356 0.393428 0.000000
0.658751 0.416715 0.000000
0.700064 0.438866 0.000000
0.740877 0.459326 0.000000
0.782315 0.477718 0.000000
0.823784 0.493302 0.000000
0.867147 0.505903 0.000000
0.910891 0.514993 0.000000
0.955270 0.520702 0.000000
1.000000 0.522569 0.000000
0.000000 0.250054 0.000000
0.066904 0.252084 0.000000
0.132506 0.258417 0.000000
0.196563 0.268606 0.000000
0.258558 0.282172 0.000000
0.313716 0.299225 0.000000
0.366523 0.319114 0.000000
0.416715 0.341249 0.000000
0.465220 0.365128 0.000000
0.509454 0.389984 0.000000
0.552062 0.415579 0.000000
0.593800 0.440721 0.000000
0.634872 0.465220 0.000000
0.677715 0.488293 0.000000
0.720347 0.509769 0.000000
0.763956 0.529064 0.000000
0.808080 0.545143 0.000000
0.855080 0.558150 0.000000
0.902664 0.567659 0.000000
0.951038 0.573787 0.000000
1.000000 0.575702 0.000000
0.000000 0.288042 0.000000
0.062322 0.290133 0.000000
0.123534 0.296584 0.000000
0.183590 0.306857 0.000000
0.241892 0.320867 0.000000
0.294371 0.338365 0.000000
0.344900 0.358868 0.000000
0.393428 0.381644 0.000000
0.440721 0.406200 0.000000
0.484135 0.431761 0.000000
0.526386 0.458059 0.000000
0.568239 0.484135 0.000000
0.610016 0.509454 0.000000
0.654371 0.533572 0.000000
0.698973 0.555847 0.000000
0.744856 0.576022 0.000000
0.791690 0.592910 0.000000
0.842421 0.606569 0.000000
0.894041 0.616579 0.000000
0.946657 0.622938 0.000000
1.000000 0.624995 0.000000
0.000000 0.329307 0.000000
0.057794 0.331439 0.000000
0.114765 0.337942 0.000000
0.170647 0.348273 0.000000
0.225190 0.362402 0.000000
0.274890 0.379924 0.000000
0.323107 0.400526 0.000000
0.369709 0.423315 0.000000
0.415579 0.447938 0.000000
0.458059 0.473614 0.000000
0.500000 0.500000 0.000000
0.541941 0.526386 0.000000
0.584421 0.552062 0.000000
0.630291 0.576685 0.000000
0.676893 0.599474 0.000000
0.725110 0.620076 0.000000
0.774810 0.637598 0.000000
0.829353 0.651727 0.000000
0.885235 0.662058 0.000000
0.942206 0.668561 0.000000
1.000000 0.670693 0.000000
0.000000 0.375005 0.000000
0.053343 0.377062 0.000000
0.105959 0.383421 0.000000
0.157579 0.393431 0.000000
0.208310 0.407090 0.000000
0.255144 0.423978 0.000000
0.301027 0.444153 0.000000
0.345629 0.466428 0.000000
0.389984 0.490546 0.000000
0.431761 0.515865 0.000000
0.473614 0.541941 0.000000
0.515865 0.568239 0.000000
0.559279 0.593800 0.000000
0.606572 0.618356 0.000000
0.655100 0.641132 0.000000
0.705629 0.661635 0.000000
0.758108 0.679133 0.000000
0.816410 0.693143 0.000000
0.876466 0.703416 0.000000
0.937678 0.709867 0.000000
1.000000 0.711958 0.000000
0.000000 0.424298 0.000000
0.048962 0.426213 0.000000
0.097336 0.432341 0.000000
0.144920 0.441850 0.000000
0.191920 0.454857 0.000000
0.236044 0.470936 0.000000
0.279653 0.490231 0.000000
0.322285 0.511707 0.000000
0.365128 0.534780 0.000000
0.406200 0.559279 0.000000
0.447938 0.584421 0.000000
0.490546 0.610016 0.000000
0.534780 0.634872 0.000000
0.583285 0.658751 0.000000
0.633477 0.680886 0.000000
0.686284 0.700775 0.000000
0.741442 0.717828 0.000000
0.803437 0.731394 0.000000
0.867494 0.741583 0.000000
0.933096 0.747916 0.000000
1.000000 0.749946 0.000000
0.000000 0.477431 0.000000
0.044730 0.479298 0.000000
0.089109 0.485007 0.000000
0.132853 0.494097 0.000000
0.176216 0.506698 0.000000
0.217685 0.522282 0.000000
0.259123 0.540674 0.000000
0.299936 0.561134 0.000000
0.341249 0.583285 0.000000
0.381644 0.606572 0.000000
0.423315 0.630291 0.000000
0.466428 0.654371 0.000000
0.511707 0.677715 0.000000
0.561134 0.700064 0.000000
0.612955 0.720841 0.000000
0.668018 0.739680 0.000000
0.726032 0.756008 0.000000
0.791267 0.768884 0.000000
0.859130 0.778617 0.000000
0.928862 0.784557 0.000000
1.000000 0.786635 0.000000
0.000000 0.535249 0.000000
0.040856 0.536839 0.000000
0.081454 0.542013 0.000000
0.121549 0.550414 0.000000
0.161553 0.562298 0.000000
0.200533 0.577005 0.000000
0.239964 0.594030 0.000000
0.279159 0.612955 0.000000
0.319114 0.633477 0.000000
0.358868 0.655100 0.000000
0.400526 0.676893 0.000000
0.444153 0.698973 0.000000
0.490231 0.720347 0.000000
0.540674 0.740877 0.000000
0.594030 0.760036 0.000000
0.651154 0.777396 0.000000
0.711736 0.792545 0.000000
0.780168 0.804319 0.000000
0.851557 0.813333 0.000000
0.924928 0.818744 0.000000
1.000000 0.820698 0.000000
0.000000 0.599081 0.000000
0.037199 0.600395 0.000000
0.074512 0.605046 0.000000
0.111255 0.612428 0.000000
0.148392 0.623059 0.000000
0.184950 0.636087 0.000000
0.222604 0.651154 0.000000
0.260320 0.668018 0.000000
0.299225 0.686284 0.000000
0.338365 0.705629 0.000000
0.379924 0.725110 0.000000
0.423978 0.744856 0.000000
0.470936 0.763956 0.000000
0.522282 0.782315 0.000000
0.577005 0.799467 0.000000
0.636087 0.815050 0.000000
0.699109 0.828612 0.000000
0.770165 0.838909 0.000000
0.844681 0.846769 0.000000
0.921374 0.851409 0.000000
1.000000 0.853094 0.000000
0.000000 0.668334 0.000000
0.033843 0.669342 0.000000
0.068413 0.673271 0.000000
0.102154 0.679382 0.000000
0.137057 0.688306 0.000000
0.171388 0.699109 0.000000
0.207455 0.711736 0.000000
0.243992 0.726032 0.000000
0.282172 0.741442 0.000000
0.320867 0.758108 0.000000
0.362402 0.774810 0.000000
0.407090 0.791690 0.000000
0.454857 0.808080 0.000000
0.506698 0.823784 0.000000
0.562298 0.838447 0.000000
0.623059 0.851608 0.000000
0.688306 0.862943 0.000000
0.761652 0.871450 0.000000
0.838693 0.878582 0.000000
0.918359 0.882710 0.000000
1.000000 0.884216 0.000000
0.000000 0.745403 0.000000
0.031330 0.746573 0.000000
0.063745 0.749616 0.000000
0.095485 0.754526 0.000000
0.128550 0.761652 0.000000
0.161091 0.770165 0.000000
0.195681 0.780168 0.000000
0.231116 0.791267 0.000000
0.268606 0.803437 0.000000
0.306857 0.816410 0.000000
0.348273 0.829353 0.000000
0.393431 0.842421 0.000000
0.441850 0.855080 0.000000
0.494097 0.867147 0.000000
0.550414 0.878451 0.000000
0.612428 0.888745 0.000000
0.679382 0.897846 0.000000
0.754526 0.904515 0.000000
0.833798 0.909553 0.000000
0.915871 0.912534 0.000000
1.000000 0.913650 0.000000
0.000000 0.827518 0.000000
0.029547 0.828277 0.000000
0.059649 0.830394 0.000000
0.090447 0.833798 0.000000
0.121418 0.838693 0.000000
0.153231 0.844681 0.000000
0.186667 0.851557 0.000000
0.221383 0.859130 0.000000
0.258417 0.867494 0.000000
0.296584 0.876466 0.000000
0.337942 0.885235 0.000000
0.383421 0.894041 0.000000
0.432341 0.902664 0.000000
0.485007 0.910891 0.000000
0.542013 0.918546 0.000000
0.605046 0.925488 0.000000
0.673271 0.931587 0.000000
0.749616 0.936255 0.000000
0.830394 0.940351 0.000000
0.914050 0.942681 0.000000
1.000000 0.943672 0.000000
0.000000 0.912594 0.000000
0.028622 0.912960 0.000000
0.057319 0.914050 0.000000
0.087466 0.915871 0.000000
0.117290 0.918359 0.000000
0.148591 0.921374 0.000000
0.181256 0.924928 0.000000
0.215443 0.928862 0.000000
0.252084 0.933096 0.000000
0.290133 0.937678 0.000000
0.331439 0.942206 0.000000
0.377062 0.946657 0.000000
0.426213 0.951038 0.000000
0.479298 0.955270 0.000000
0.536839 0.959144 0.000000
0.600395 0.962801 0.000000
0.669342 0.966157 0.000000
0.746573 0.968670 0.000000
0.828277 0.970453 0.000000
0.912960 0.971378 0.000000
1.000000 0.971783 0.000000
0.000000 1.000000 0.000000
0.028217 1.000000 0.000000
0.056328 1.000000 0.000000
0.086350 1.000000 0.000000
0.115784 1.000000 0.000000
0.146906 1.000000 0.000000
0.179302 1.000000 0.000000
0.213365 1.000000 0.000000
0.250054 1.000000 0.000000
0.288042 1.000000 0.000000
0.329307 1.000000 0.000000
0.375005 1.000000 0.000000
0.424298 1.000000 0.000000
0.477431 1.000000 0.000000
0.535249 1.000000 0.000000
0.599081 1.000000 0.000000
0.668334 1.000000 0.000000
0.745403 1.000000 0.000000
0.827518 1.000000 0.000000
0.912594 1.000000 0.000000
1.000000 1.000000 0.000000
0.000000 0.000000 0.082500
0.087406 0.000000 0.082500
0.172482 0.000000 0.082500
0.254597 0.000000 0.082500
0.331666 0.000000 0.082500
0.400919 0.000000 0.082500
0.464751 0.000000 0.082500
0.522569 0.000000 0.082500
0.575702 0.000000 0.082500
0.624995 0.000000 0.082500
0.670693 0.000000 0.082500
0.711958 0.000000 0.082500
0.749946 0.000000 0.082500
0.786635 0.000000 0.082500
0.820698 0.000000 0.082500
0.853094 0.000000 0.082500
0.884216 0.000000 0.082500
0.913650 0.000000 0.082500
0.943672 0.000000 0.082500
0.971783 0.000000 0.082500
1.000000 0.000000 0.082500
0.000000 0.028217 0.082500
0.087040 0.028622 0.082500
0.171723 0.029547 0.082500
0.253427 0.031330 0.082500
0.330658 0.033843 0.082500
0.399605 0.037199 0.082500
0.463161 0.040856 0.082500
0.520702 0.044730 0.082500
0.573787 0.048962 0.082500
0.622938 0.053343 0.082500
0.668561 0.057794 0.082500
0.709867 0.062322 0.082500
0.747916 0.066904 0.082500
0.784557 0.071138 0.082500
0.818744 0.075072 0.082500
0.851409 0.078626 0.082500
0.882710 0.081641 0.082500
0.912534 0.084129 0.082500
0.942681 0.085950 0.082500
0.971378 0.087040 0.082500
1.000000 0.087406 0.082500
0.000000 0.056328 0.082500
0.085950 0.057319 0.082500
0.169606 0.059649 0.082500
0.250384 0.063745 0.082500
0.326729 0.068413 0.082500
0.394954 0.074512 0.082500
0.457987 0.081454 0.082500
0.514993 0.089109 0.082500
0.567659 0.097336 0.082500
0.616579 0.105959 0.082500
0.662058 0.114765 0.082500
0.703416 0.123534 0.082500
0.741583 0.132506 0.082500
0.778617 0.140870 0.082500
0.813333 0.148443 0.082500
0.846769 0.155319 0.082500
0.878582 0.161307 0.082500
0.909553 0.166202 0.082500
0.940351 0.169606 0.082500
0.970453 0.171723 0.082500
1.000000 0.172482 0.082500
0.000000 0.086350 0.082500
0.084129 0.087466 0.082500
0.166202 0.090447 0.082500
0.245474 0.095485 0.082500
0.320618 0.102154 0.082500
0.387572 0.111255 0.082500
0.449586 0.121549 0.082500
0.505903 0.132853 0.082500
0.558150 0.144920 0.082500
0.606569 0.157579 0.082500
0.651727 0.170647 0.082500
0.693143 0.183590 0.082500
0.731394 0.196563 0.082500
0.768884 0.208733 0.082500
0.804319 0.219832 0.082500
0.838909 0.229835 0.082500
0.871450 0.238348 0.082500
0.904515 0.245474 0.082500
0.936255 0.250384 0.082500
0.968670 0.253427 0.082500
1.000000 0.254597 0.082500
0.000000 0.115784 0.082500
0.081641 0.117290 0.082500
0.161307 0.121418 0.082500
0.238348 0.128550 0.082500
0.311694 0.137057 0.082500
0.376941 0.148392 0.082500
0.437702 0.161553 0.082500
0.493302 0.176216 0.082500
0.545143 0.191920 0.082500
0.592910 0.208310 0.082500
0.637598 0.225190 0.082500
0.679133 0.241892 0.082500
0.717828 0.258558 0.082500
0.756008 0.273968 0.082500
0.792545 0.288264 0.082500
0.828612 0.300891 0.082500
0.862943 0.311694 0.082500
0.897846 0.320618 0.082500
0.931587 0.326729 0.082500
0.966157 0.330658 0.082500
1.000000 0.331666 0.082500
0.000000 0.146906 0.082500
0.078626 0.148591 0.082500
0.155319 0.153231 0.082500
0.229835 0.161091 0.082500
0.300891 0.171388 0.082500
0.363913 0.184950 0.082500
0.422995 0.200533 0.082500
0.477718 0.217685 0.082500
0.529064 0.236044 0.082500
0.576022 0.255144 0.082500
0.620076 0.274890 0.082500
0.661635 0.294371 0.082500
0.700775 0.313716 0.082500
0.739680 0.331982 0.082500
0.777396 0.348846 0.082500
0.815050 0.363913 0.082500
0.851608 0.376941 0.082500
0.888745 0.387572 0.082500
0.925488 0.394954 0.082500
0.962801 0.399605 0.082500
1.000000 0.400919 0.082500
0.000000 0.179302 0.082500
0.075072 0.181256 0.082500
0.148443 0.186667 0.082500
0.219832 0.195681 0.082500
0.288264 0.207455 0.082500
0.348846 0.222604 0.082500
0.405970 0.239964 0.082500
0.459326 0.259123 0.082500
0.509769 0.279653 0.082500
0.555847 0.301027 0.082500
0.599474 0.323107 0.082500
0.641132 0.344900 0.082500
0.680886 0.366523 0.082500
0.720841 0.387045 0.082500
0.760036 0.405970 0.082500
0.799467 0.422995 0.082500
0.838447 0.437702 0.082500
0.878451 0.449586 0.082500
0.918546 0.457987 0.082500
0.959144 0.463161 0.082500
1.000000 0.464751 0.082500
0.000000 0.213365 0.082500
0.071138 0.215443 0.082500
0.140870 0.221383 0.082500
0.208733 0.231116 0.082500
0.273968 0.243992 0.082500
0.331982 0.260320 0.082500
0.387045 0.279159 0.082500
0.438866 0.299936 0.082500
0.488293 0.322285 0.082500
0.533572 0.345629 0.082500
0.576685 0.369709 0.082500
0.618356 0.393428 0.082500
0.658751 0.416715 0.082500
0.700064 0.438866 0.082500
0.740877 0.459326 0.082500
0.782315 0.477718 0.082500
0.823784 0.493302 0.082500
0.867147 0.505903 0.082500
0.910891 0.514993 0.082500
0.955270 0.520702 0.082500
1.000000 0.522569 0.082500
0.000000 0.250054 0.082500
0.066904 0.252084 0.082500
0.132506 0.258417 0.082500
0.196563 0.268606 0.082500
0.258558 0.282172 0.082500
0.313716 0.299225 0.082500
0.366523 0.319114 0.082500
0.416715 0.341249 0.082500
0.465220 0.365128 0.082500
0.509454 0.389984 0.082500
0.552062 0.415579 0.082500
0.593800 0.440721 0.082500
0.634872 0.465220 0.082500
0.677715 0.488293 0.082500
0.720347 0.509769 0.082500
0.763956 0.529064 0.082500
0.808080 0.545143 0.082500
0.855080 0.558150 0.082500
0.902664 0.567659 0.082500
0.951038 0.573787 0.082500
1.000000 0.575702 0.082500
0.000000 0.288042 0.082500
0.062322 0.290133 0.082500
0.123534 0.296584 0.082500
0.183590 0.306857 0.082500
0.241892 0.320867 0.082500
0.294371 0.338365 0.082500
0.344900 0.358868 0.082500
0.393428 0.381644 0.082500
0.440721 0.406200 0.082500
0.484135 0.431761 0.082500
0.526386 0.458059 0.082500
0.568239 0.484135 0.082500
0.610016 0.509454 0.082500
0.654371 0.533572 0.082500
0.698973 0.555847 0.082500
0.744856 0.576022 0.082500
0.791690 0.592910 0.082500
0.842421 0.606569 0.082500
0.894041 0.616579 0.082500
0.946657 0.622938 0.082500
1.000000 0.624995 0.082500
0.000000 0.329307 0.082500
0.057794 0.331439 0.082500
0.114765 0.337942 0.082500
0.170647 0.348273 0.082500
0.225190 0.362402 0.082500
0.274890 0.379924 0.082500
0.323107 0.400526 0.082500
0.369709 0.423315 0.082500
0.415579 0.447938 0.082500
0.458059 0.473614 0.082500
0.500000 0.500000 0.082500
0.541941 0.526386 0.082500
0.584421 0.552062 0.082500
0.630291 0.576685 0.082500
0.676893 0.599474 0.082500
0.725110 0.620076 0.082500
0.774810 0.637598 0.082500
0.829353 0.651727 0.082500
0.885235 0.662058 0.082500
0.942206 0.668561 0.082500
1.000000 0.670693 0.082500
0.000000 0.375005 0.082500
0.053343 0.377062 0.082500
0.105959 0.383421 0.082500
0.157579 0.393431 0.082500
0.208310 0.407090 0.082500
0.255144 0.423978 0.082500
0.301027 0.444153 0.082500
0.345629 0.466428 0.082500
0.389984 0.490546 0.082500
0.431761 0.515865 0.082500
0.473614 0.541941 0.082500
0.515865 0.568239 0.082500
0.559279 0.593800 0.082500
0.606572 0.618356 0.082500
0.655100 0.641132 0.082500
0.705629 0.661635 0.082500
0.758108 0.679133 0.082500
0.816410 0.693143 0.082500
0.876466 0.703416 0.082500
0.937678 0.709867 0.082500
1.000000 0.711958 0.082500
0.000000 0.424298 0.082500
0.048962 0.426213 0.082500
0.097336 0.432341 0.082500
0.144920 0.441850 0.082500
0.191920 0.454857 0.082500
0.236044 0.470936 0.082500
0.279653 0.490231 0.082500
0.322285 0.511707 0.082500
0.365128 0.534780 0.082500
0.406200 0.559279 0.082500
0.447938 0.584421 0.082500
0.490546 0.610016 0.082500
0.534780 0.634872 0.082500
0.583285 0.658751 0.082500
0.633477 0.680886 0.082500
0.686284 0.700775 0.082500
0.741442 0.717828 0.082500
0.803437 0.731394 0.082500
0.867494 0.741583 0.082500
0.933096 0.747916 0.082500
1.000000 0.749946 0.082500
0.000000 0.477431 0.082500
0.044730 0.479298 0.082500
0.089109 0.485007 0.082500
0.132853 0.494097 0.082500
0.176216 0.506698 0.082500
0.217685 0.522282 0.082500
0.259123 0.540674 0.082500
0.299936 0.561134 0.082500
0.341249 0.583285 0.082500
0.381644 0.606572 0.082500
0.423315 0.630291 0.082500
0.466428 0.654371 0.082500
0.511707 0.677715 0.082500
0.561134 0.700064 0.082500
0.612955 0.720841 0.082500
0.668018 0.739680 0.082500
0.726032 0.756008 0.082500
0.791267 0.768884 0.082500
0.859130 0.778617 0.082500
0.928862 0.784557 0.082500
1.000000 0.786635 0.082500
0.000000 0.535249 0.082500
0.040856 0.536839 0.082500
0.081454 0.542013 0.082500
0.121549 0.550414 0.082500