# vtk DataFile Version 2.0
Mesh for Fierro
ASCII 
DATASET UNSTRUCTURED_GRID

POINTS 2205 float
0.000000 0.000000 0.000000
0.550304 0.000000 0.000000
0.891355 0.000000 0.000000
0.918872 0.000000 0.000000
0.933614 0.000000 0.000000
0.945520 0.000000 0.000000
0.953554 0.000000 0.000000
0.960758 0.000000 0.000000
0.966302 0.000000 0.000000
0.970898 0.000000 0.000000
0.974764 0.000000 0.000000
0.977968 0.000000 0.000000
0.980550 0.000000 0.000000
0.982749 0.000000 0.000000
0.984830 0.000000 0.000000
0.986958 0.000000 0.000000
0.989129 0.000000 0.000000
0.991779 0.000000 0.000000
0.994668 0.000000 0.000000
0.998052 0.000000 0.000000
1.000000 0.000000 0.000000
0.000000 0.001948 0.000000
0.570275 0.005460 0.000000
0.883635 0.032119 0.000000
0.887568 0.109993 0.000000
0.913014 0.123715 0.000000
0.925171 0.183976 0.000000
0.934354 0.240712 0.000000
0.939299 0.302322 0.000000
0.942571 0.364722 0.000000
0.945671 0.416527 0.000000
0.948714 0.464905 0.000000
0.951697 0.510190 0.000000
0.954569 0.552181 0.000000
0.958243 0.585389 0.000000
0.962607 0.611167 0.000000
0.967779 0.630785 0.000000
0.973559 0.642388 0.000000
0.980772 0.632673 0.000000
0.987943 0.604988 0.000000
0.994540 0.570275 0.000000
1.000000 0.550304 0.000000
0.000000 0.005332 0.000000
0.604988 0.012057 0.000000
0.866577 0.050984 0.000000
0.863947 0.155900 0.000000
0.902338 0.222681 0.000000
0.912002 0.335581 0.000000
0.913529 0.427785 0.000000
0.913251 0.510425 0.000000
0.907386 0.583085 0.000000
0.903609 0.632384 0.000000
0.896060 0.673410 0.000000
0.886717 0.703532 0.000000
0.878286 0.726873 0.000000
0.878578 0.745072 0.000000
0.885108 0.762745 0.000000
0.896300 0.782810 0.000000
0.910456 0.807149 0.000000
0.929658 0.837142 0.000000
0.949016 0.866577 0.000000
0.967881 0.883635 0.000000
1.000000 0.891355 0.000000
0.000000 0.008221 0.000000
0.632673 0.019228 0.000000
0.837142 0.070342 0.000000
0.864173 0.203283 0.000000
0.887991 0.328987 0.000000
0.884552 0.420443 0.000000
0.882196 0.505716 0.000000
0.864731 0.584489 0.000000
0.843637 0.637812 0.000000
0.822510 0.681059 0.000000
0.793968 0.721612 0.000000
0.768995 0.758474 0.000000
0.748768 0.792488 0.000000
0.743834 0.818006 0.000000
0.748381 0.836259 0.000000
0.758350 0.849297 0.000000
0.773615 0.858551 0.000000
0.796717 0.864173 0.000000
0.844100 0.863947 0.000000
0.890007 0.887568 0.000000
1.000000 0.918872 0.000000
0.000000 0.010871 0.000000
0.642388 0.026441 0.000000
0.807149 0.089544 0.000000
0.858551 0.226385 0.000000
0.853381 0.372039 0.000000
0.855353 0.458335 0.000000
0.844473 0.556961 0.000000
0.801572 0.625230 0.000000
0.767225 0.673055 0.000000
0.730405 0.711595 0.000000
0.694441 0.739806 0.000000
0.671784 0.758906 0.000000
0.649161 0.770837 0.000000
0.632583 0.783539 0.000000
0.622193 0.800369 0.000000
0.618551 0.823675 0.000000
0.627961 0.853381 0.000000
0.671013 0.887991 0.000000
0.777319 0.902338 0.000000
0.876285 0.913014 0.000000
1.000000 0.933614 0.000000
0.000000 0.013042 0.000000
0.630785 0.032221 0.000000
0.782810 0.103700 0.000000
0.849297 0.241650 0.000000
0.823675 0.381449 0.000000
0.830646 0.481849 0.000000
0.807408 0.569037 0.000000
0.755512 0.621840 0.000000
0.713401 0.665464 0.000000
0.669036 0.696642 0.000000
0.620230 0.718335 0.000000
0.575192 0.737018 0.000000
0.533412 0.755867 0.000000
0.513119 0.780901 0.000000
0.505430 0.805592 0.000000
0.518151 0.830646 0.000000
0.541665 0.855353 0.000000
0.579557 0.884552 0.000000
0.664419 0.912002 0.000000
0.816024 0.925171 0.000000
1.000000 0.945520 0.000000
0.000000 0.015170 0.000000
0.611167 0.037393 0.000000
0.762745 0.114892 0.000000
0.836259 0.251619 0.000000
0.800369 0.377807 0.000000
0.805592 0.494570 0.000000
0.765508 0.565955 0.000000
0.713735 0.611026 0.000000
0.661746 0.649409 0.000000
0.612799 0.672886 0.000000
0.563616 0.687713 0.000000
0.522118 0.703450 0.000000
0.485031 0.715689 0.000000
0.456227 0.738600 0.000000
0.434045 0.765508 0.000000
0.430963 0.807408 0.000000
0.443039 0.844473 0.000000
0.494284 0.882196 0.000000
0.572215 0.913529 0.000000
0.759288 0.934354 0.000000
1.000000 0.953554 0.000000
0.000000 0.017251 0.000000
0.585389 0.041757 0.000000
0.745072 0.121422 0.000000
0.818006 0.256166 0.000000
0.783539 0.367417 0.000000
0.780901 0.486881 0.000000
0.738600 0.543773 0.000000
0.684694 0.588571 0.000000
0.630317 0.616873 0.000000
0.580264 0.634822 0.000000
0.529817 0.645056 0.000000
0.483646 0.652759 0.000000
0.442230 0.662259 0.000000
0.411429 0.684694 0.000000
0.388974 0.713735 0.000000
0.378160 0.755512 0.000000
0.374770 0.801572 0.000000
0.415511 0.864731 0.000000
0.489575 0.913251 0.000000
0.697678 0.939299 0.000000
1.000000 0.960758 0.000000
0.000000 0.019450 0.000000
0.552181 0.045431 0.000000
0.726873 0.121714 0.000000
0.792488 0.251232 0.000000
0.770837 0.350839 0.000000
0.755867 0.466588 0.000000
0.715689 0.514969 0.000000
0.662259 0.557770 0.000000
0.606837 0.576832 0.000000
0.556904 0.592013 0.000000
0.509082 0.596186 0.000000
0.465257 0.601313 0.000000
0.423168 0.606837 0.000000
0.383127 0.630317 0.000000
0.350591 0.661746 0.000000
0.334536 0.713401 0.000000
0.326945 0.767225 0.000000
0.362188 0.843637 0.000000
0.416915 0.907386 0.000000
0.635278 0.942571 0.000000
1.000000 0.966302 0.000000
0.000000 0.022032 0.000000
0.510190 0.048303 0.000000
0.703532 0.113283 0.000000
0.758474 0.231005 0.000000
0.758906 0.328216 0.000000
0.737018 0.424808 0.000000
0.703450 0.477882 0.000000
0.652759 0.516354 0.000000
0.601313 0.534743 0.000000
0.550552 0.546062 0.000000
0.501395 0.547808 0.000000
0.453938 0.550552 0.000000
0.407987 0.556904 0.000000
0.365178 0.580264 0.000000
0.327114 0.612799 0.000000
0.303358 0.669036 0.000000
0.288405 0.730405 0.000000
0.318941 0.822510 0.000000
0.367616 0.903609 0.000000
0.583473 0.945671 0.000000
1.000000 0.970898 0.000000
0.000000 0.025236 0.000000
0.464905 0.051286 0.000000
0.673410 0.103940 0.000000
0.721612 0.206032 0.000000
0.739806 0.305559 0.000000
0.718335 0.379770 0.000000
0.687713 0.436384 0.000000
0.645056 0.470183 0.000000
0.596186 0.490918 0.000000
0.547808 0.498605 0.000000
0.500000 0.500000 0.000000
0.452192 0.501395 0.000000
0.403814 0.509082 0.000000
0.354944 0.529817 0.000000
0.312287 0.563616 0.000000
0.281665 0.620230 0.000000
0.260194 0.694441 0.000000
0.278388 0.793968 0.000000
0.326590 0.896060 0.000000
0.535095 0.948714 0.000000
1.000000 0.974764 0.000000
0.000000 0.029102 0.000000
0.416527 0.054329 0.000000
0.632384 0.096391 0.000000
0.681059 0.177490 0.000000
0.711595 0.269595 0.000000
0.696642 0.330964 0.000000
0.672886 0.387201 0.000000
0.634822 0.419736 0.000000
0.592013 0.443096 0.000000
0.546062 0.449448 0.000000
0.498605 0.452192 0.000000
0.449448 0.453938 0.000000
0.398687 0.465257 0.000000
0.347241 0.483646 0.000000
0.296550 0.522118 0.000000
0.262982 0.575192 0.000000
0.241094 0.671784 0.000000
0.241526 0.768995 0.000000
0.296468 0.886717 0.000000
0.489810 0.951697 0.000000
1.000000 0.977968 0.000000
0.000000 0.033698 0.000000
0.364722 0.057429 0.000000
0.583085 0.092614 0.000000
0.637812 0.156363 0.000000
0.673055 0.232775 0.000000
0.665464 0.286599 0.000000
0.649409 0.338254 0.000000
0.616873 0.369683 0.000000
0.576832 0.393163 0.000000
0.534743 0.398687 0.000000
0.490918 0.403814 0.000000
0.443096 0.407987 0.000000
0.393163 0.423168 0.000000
0.337741 0.442230 0.000000
0.284311 0.485031 0.000000
0.244133 0.533412 0.000000
0.229163 0.649161 0.000000
0.207512 0.748768 0.000000
0.273127 0.878286 0.000000
0.447819 0.954569 0.000000
1.000000 0.980550 0.000000
0.000000 0.039242 0.000000
0.302322 0.060701 0.000000
0.510425 0.086749 0.000000
0.584489 0.135269 0.000000
0.625230 0.198428 0.000000
0.621840 0.244488 0.000000
0.611026 0.286265 0.000000
0.588571 0.315306 0.000000
0.557770 0.337741 0.000000
0.516354 0.347241 0.000000
0.470183 0.354944 0.000000
0.419736 0.365178 0.000000
0.369683 0.383127 0.000000
0.315306 0.411429 0.000000
0.261400 0.456227 0.000000
0.219099 0.513119 0.000000
0.216461 0.632583 0.000000
0.181994 0.743834 0.000000
0.254928 0.878578 0.000000
0.414611 0.958243 0.000000
1.000000 0.982749 0.000000
0.000000 0.046446 0.000000
0.240712 0.065646 0.000000
0.427785 0.086471 0.000000
0.505716 0.117804 0.000000
0.556961 0.155527 0.000000
0.569037 0.192592 0.000000
0.565955 0.234492 0.000000
0.543773 0.261400 0.000000
0.514969 0.284311 0.000000
0.477882 0.296550 0.000000
0.436384 0.312287 0.000000
0.387201 0.327114 0.000000
0.338254 0.350591 0.000000
0.286265 0.388974 0.000000
0.234492 0.434045 0.000000
0.194408 0.505430 0.000000
0.199631 0.622193 0.000000
0.163741 0.748381 0.000000
0.237255 0.885108 0.000000
0.388833 0.962607 0.000000
1.000000 0.984830 0.000000
0.000000 0.054480 0.000000
0.183976 0.074829 0.000000
0.335581 0.087998 0.000000
0.420443 0.115448 0.000000
0.458335 0.144647 0.000000
0.481849 0.169354 0.000000
0.494570 0.194408 0.000000
0.486881 0.219099 0.000000
0.466588 0.244133 0.000000
0.424808 0.262982 0.000000
0.379770 0.281665 0.000000
0.330964 0.303358 0.000000
0.286599 0.334536 0.000000
0.244488 0.378160 0.000000
0.192592 0.430963 0.000000
0.169354 0.518151 0.000000
0.176325 0.618551 0.000000
0.150703 0.758350 0.000000
0.217190 0.896300 0.000000
0.369215 0.967779 0.000000
1.000000 0.986958 0.000000
0.000000 0.066386 0.000000
0.123715 0.086986 0.000000
0.222681 0.097662 0.000000
0.328987 0.112009 0.000000
0.372039 0.146619 0.000000
0.381449 0.176325 0.000000
0.377807 0.199631 0.000000
0.367417 0.216461 0.000000
0.350839 0.229163 0.000000
0.328216 0.241094 0.000000
0.305559 0.260194 0.000000
0.269595 0.288405 0.000000
0.232775 0.326945 0.000000
0.198428 0.374770 0.000000
0.155527 0.443039 0.000000
0.144647 0.541665 0.000000
0.146619 0.627961 0.000000
0.141449 0.773615 0.000000
0.192851 0.910456 0.000000
0.357612 0.973559 0.000000
1.000000 0.989129 0.000000
0.000000 0.081128 0.000000
0.109993 0.112432 0.000000
0.155900 0.136053 0.000000
0.203283 0.135827 0.000000
0.226385 0.141449 0.000000
0.241650 0.150703 0.000000
0.251619 0.163741 0.000000
0.256166 0.181994 0.000000
0.251232 0.207512 0.000000
[...]
POINT_DATA 2205 
VECTORS pos float 
0.000000 0.000000 0.000000
0.550304 0.000000 0.000000
0.891355 0.000000 0.000000
0.918872 0.000000 0.000000
0.933614 0.000000 0.000000
0.945520 0.000000 0.000000
0.953554 0.000000 0.000000
0.960758 0.000000 0.000000
0.966302 0.000000 0.000000
0.970898 0.000000 0.000000
0.974764 0.000000 0.000000
0.977968 0.000000 0.000000
0.980550 0.000000 0.000000
0.982749 0.000000 0.000000
0.984830 0.000000 0.000000
0.986958 0.000000 0.000000
0.989129 0.000000 0.000000
0.991779 0.000000 0.000000
0.994668 0.000000 0.000000
0.998052 0.000000 0.000000
1.000000 0.000000 0.000000
0.000000 0.001948 0.000000
0.570275 0.005460 0.000000
0.883635 0.032119 0.000000
0.887568 0.109993 0.000000
0.913014 0.123715 0.000000
0.925171 0.183976 0.000000
0.934354 0.240712 0.000000
0.939299 0.302322 0.000000
0.942571 0.364722 0.000000
0.945671 0.416527 0.000000
0.948714 0.464905 0.000000
0.951697 0.510190 0.000000
0.954569 0.552181 0.000000
0.958243 0.585389 0.000000
0.962607 0.611167 0.000000
0.967779 0.630785 0.000000
0.973559 0.642388 0.000000
0.980772 0.632673 0.000000
0.987943 0.604988 0.000000
0.994540 0.570275 0.000000
1.000000 0.550304 0.000000
0.000000 0.005332 0.000000
0.604988 0.012057 0.000000
0.866577 0.050984 0.000000
0.863947 0.155900 0.000000
0.902338 0.222681 0.000000
0.912002 0.335581 0.000000
0.913529 0.427785 0.000000
0.913251 0.510425 0.000000
0.907386 0.583085 0.000000
0.903609 0.632384 0.000000
0.896060 0.673410 0.000000
0.886717 0.703532 0.000000
0.878286 0.726873 0.000000
0.878578 0.745072 0.000000
0.885108 0.762745 0.000000
0.896300 0.782810 0.000000
0.910456 0.807149 0.000000
0.929658 0.837142 0.000000
0.949016 0.866577 0.000000
0.967881 0.883635 0.000000
1.000000 0.891355 0.000000
0.000000 0.008221 0.000000
0.632673 0.019228 0.000000
0.837142 0.070342 0.000000
0.864173 0.203283 0.000000
0.887991 0.328987 0.000000
0.884552 0.420443 0.000000
0.882196 0.505716 0.000000
0.864731 0.584489 0.000000
0.843637 0.637812 0.000000
0.822510 0.681059 0.000000
0.793968 0.721612 0.000000
0.768995 0.758474 0.000000
0.748768 0.792488 0.000000
0.743834 0.818006 0.000000
0.748381 0.836259 0.000000
0.758350 0.849297 0.000000
0.773615 0.858551 0.000000
0.796717 0.864173 0.000000
0.844100 0.863947 0.000000
0.890007 0.887568 0.000000
1.000000 0.918872 0.000000
0.000000 0.010871 0.000000
0.642388 0.026441 0.000000
0.807149 0.089544 0.000000
0.858551 0.226385 0.000000
0.853381 0.372039 0.000000
0.855353 0.458335 0.000000
0.844473 0.556961 0.000000
0.801572 0.625230 0.000000
0.767225 0.673055 0.000000
0.730405 0.711595 0.000000
0.694441 0.739806 0.000000
0.671784 0.758906 0.000000
0.649161 0.770837 0.000000
0.632583 0.783539 0.000000
0.622193 0.800369 0.000000
0.618551 0.823675 0.000000
0.627961 0.853381 0.000000
0.671013 0.887991 0.000000
0.777319 0.902338 0.000000
0.876285 0.913014 0.000000
1.000000 0.933614 0.000000
0.000000 0.013042 0.000000
0.630785 0.032221 0.000000
0.782810 0.103700 0.000000
0.849297 0.241650 0.000000
0.823675 0.381449 0.000000
0.830646 0.481849 0.000000
0.807408 0.569037 0.000000
0.755512 0.621840 0.000000
0.713401 0.665464 0.000000
0.669036 0.696642 0.000000
0.620230 0.718335 0.000000
0.575192 0.737018 0.000000
0.533412 0.755867 0.000000
0.513119 0.780901 0.000000
0.505430 0.805592 0.000000
0.518151 0.830646 0.000000
0.541665 0.855353 0.000000
0.579557 0.884552 0.000000
0.664419 0.912002 0.000000
0.816024 0.925171 0.000000
1.000000 0.945520 0.000000
0.000000 0.015170 0.000000
0.611167 0.037393 0.000000
0.762745 0.114892 0.000000
0.836259 0.251619 0.000000
0.800369 0.377807 0.000000
0.805592 0.494570 0.000000
0.765508 0.565955 0.000000
0.713735 0.611026 0.000000
0.661746 0.649409 0.000000
0.612799 0.672886 0.000000
0.563616 0.687713 0.000000
0.522118 0.703450 0.000000
0.485031 0.715689 0.000000
0.456227 0.738600 0.000000
0.434045 0.765508 0.000000
0.430963 0.807408 0.000000
0.443039 0.844473 0.000000
0.494284 0.882196 0.000000
0.572215 0.913529 0.000000
0.759288 0.934354 0.000000
1.000000 0.953554 0.000000
0.000000 0.017251 0.000000
0.585389 0.041757 0.000000
0.745072 0.121422 0.000000
0.818006 0.256166 0.000000
0.783539 0.367417 0.000000
0.780901 0.486881 0.000000
0.738600 0.543773 0.000000
0.684694 0.588571 0.000000
0.630317 0.616873 0.000000
0.580264 0.634822 0.000000
0.529817 0.645056 0.000000
0.483646 0.652759 0.000000
0.442230 0.662259 0.000000
0.411429 0.684694 0.000000
0.388974 0.713735 0.000000
0.378160 0.755512 0.000000
0.374770 0.801572 0.000000
0.415511 0.864731 0.000000
0.489575 0.913251 0.000000
0.697678 0.939299 0.000000
1.000000 0.960758 0.000000
0.000000 0.019450 0.000000
0.552181 0.045431 0.000000
0.726873 0.121714 0.000000
0.792488 0.251232 0.000000
0.770837 0.350839 0.000000
0.755867 0.466588 0.000000
0.715689 0.514969 0.000000
0.662259 0.557770 0.000000
0.606837 0.576832 0.000000
0.556904 0.592013 0.000000
0.509082 0.596186 0.000000
0.465257 0.601313 0.000000
0.423168 0.606837 0.000000
0.383127 0.630317 0.000000
0.350591 0.661746 0.000000
0.334536 0.713401 0.000000
0.326945 0.767225 0.000000
0.362188 0.843637 0.000000
0.416915 0.907386 0.000000
0.635278 0.942571 0.000000
1.000000 0.966302 0.000000
0.000000 0.022032 0.000000
0.510190 0.048303 0.000000
0.703532 0.113283 0.000000
0.758474 0.231005 0.000000
0.758906 0.328216 0.000000
0.737018 0.424808 0.000000
0.703450 0.477882 0.000000
0.652759 0.516354 0.000000
0.601313 0.534743 0.000000
0.550552 0.546062 0.000000
0.501395 0.547808 0.000000
0.453938 0.550552 0.000000
0.407987 0.556904 0.000000
0.365178 0.580264 0.000000
0.327114 0.612799 0.000000
0.303358 0.669036 0.000000
0.288405 0.730405 0.000000
0.318941 0.822510 0.000000
0.367616 0.903609 0.000000
0.583473 0.945671 0.000000
1.000000 0.970898 0.000000
0.000000 0.025236 0.000000
0.464905 0.051286 0.000000
0.673410 0.103940 0.000000
0.721612 0.206032 0.000000
0.739806 0.305559 0.000000
0.718335 0.379770 0.000000
0.687713 0.436384 0.000000
0.645056 0.470183 0.000000
0.596186 0.490918 0.000000
0.547808 0.498605 0.000000
0.500000 0.500000 0.000000
0.452192 0.501395 0.000000
0.403814 0.509082 0.000000
0.354944 0.529817 0.000000
0.312287 0.563616 0.000000
0.281665 0.620230 0.000000
0.260194 0.694441 0.000000
0.278388 0.793968 0.000000
0.326590 0.896060 0.000000
0.535095 0.948714 0.000000
1.000000 0.974764 0.000000
0.000000 0.029102 0.000000
0.416527 0.054329 0.000000
0.632384 0.096391 0.000000
0.681059 0.177490 0.000000
0.711595 0.269595 0.000000
0.696642 0.330964 0.000000
0.672886 0.387201 0.000000
0.634822 0.419736 0.000000
0.592013 0.443096 0.000000
0.546062 0.449448 0.000000
0.498605 0.452192 0.000000
0.449448 0.453938 0.000000
0.398687 0.465257 0.000000
0.347241 0.483646 0.000000
0.296550 0.522118 0.000000
0.262982 0.575192 0.000000
0.241094 0.671784 0.000000
0.241526 0.768995 0.000000
0.296468 0.886717 0.000000
0.489810 0.951697 0.000000
1.000000 0.977968 0.000000
0.000000 0.033698 0.000000
0.364722 0.057429 0.000000
0.583085 0.092614 0.000000
0.637812 0.156363 0.000000
0.673055 0.232775 0.000000
0.665464 0.286599 0.000000
0.649409 0.338254 0.000000
0.616873 0.369683 0.000000
0.576832 0.393163 0.000000
0.534743 0.398687 0.000000
0.490918 0.403814 0.000000
0.443096 0.407987 0.000000
0.393163 0.423168 0.000000
0.337741 0.442230 0.000000
0.284311 0.485031 0.000000
0.244133 0.533412 0.000000
0.229163 0.649161 0.000000
0.207512 0.748768 0.000000
0.273127 0.878286 0.000000
0.447819 0.954569 0.000000
1.000000 0.980550 0.000000
0.000000 0.039242 0.000000
0.302322 0.060701 0.000000
0.510425 0.086749 0.000000
0.584489 0.135269 0.000000
0.625230 0.198428 0.000000
0.621840 0.244488 0.000000
0.611026 0.286265 0.000000
0.588571 0.315306 0.000000
0.557770 0.337741 0.000000
0.516354 0.347241 0.000000
0.470183 0.354944 0.000000
0.419736 0.365178 0.000000
0.369683 0.383127 0.000000
0.315306 0.411429 0.000000
0.261400 0.456227 0.000000
0.219099 0.513119 0.000000
0.216461 0.632583 0.000000
0.181994 0.743834 0.000000
0.254928 0.878578 0.000000
0.414611 0.958243 0.000000
1.000000 0.982749 0.000000
0.000000 0.046446 0.000000
0.240712 0.065646 0.000000
0.427785 0.086471 0.000000
0.505716 0.117804 0.000000
0.556961 0.155527 0.000000
0.569037 0.192592 0.000000
0.565955 0.234492 0.000000
0.543773 0.261400 0.000000
0.514969 0.284311 0.000000
0.477882 0.296550 0.000000
0.436384 0.312287 0.000000
0.387201 0.327114 0.000000
0.338254 0.350591 0.000000
0.286265 0.388974 0.000000
0.234492 0.434045 0.000000
0.194408 0.505430 0.000000
0.199631 0.622193 0.000000
0.163741 0.748381 0.000000
0.237255 0.885108 0.000000
0.388833 0.962607 0.000000
1.000000 0.984830 0.000000
0.000000 0.054480 0.000000
0.183976 0.074829 0.000000
0.335581 0.087998 0.000000
0.420443 0.115448 0.000000
0.458335 0.144647 0.000000
0.481849 0.169354 0.000000
0.494570 0.194408 0.000000
0.486881 0.219099 0.000000
0.466588 0.244133 0.000000
0.424808 0.262982 0.000000
0.379770 0.281665 0.000000
0.330964 0.303358 0.000000
0.286599 0.334536 0.000000
0.244488 0.378160 0.000000
0.192592 0.430963 0.000000
0.169354 0.518151 0.000000
0.176325 0.618551 0.000000
0.150703 0.758350 0.000000
0.217190 0.896300 0.000000
0.369215 0.967779 0.000000
1.000000 0.986958 0.000000
0.000000 0.066386 0.000000
0.123715 0.086986 0.000000
0.222681 0.097662 0.000000
0.328987 0.112009 0.000000
0.372039 0.146619 0.000000
0.381449 0.176325 0.000000
0.377807 0.199631 0.000000
0.367417 0.216461 0.000000
0.350839 0.229163 0.000000
0.328216 0.241094 0.000000
0.305559 0.260194 0.000000
0.269595 0.288405 0.000000
0.232775 0.326945 0.000000
0.198428 0.374770 0.000000
0.155527 0.443039 0.000000
0.144647 0.541665 0.000000
0.146619 0.627961 0.000000
0.141449 0.773615 0.000000
0.192851 0.910456 0.000000
0.357612 0.973559 0.000000
1.000000 0.989129 0.000000
0.000000 0.081128 0.000000
0.109993 0.112432 0.000000
0.155900 0.136053 0.000000
0.203283 0.135827 0.000000
0.226385 0.141449 0.000000
0.241650 0.150703 0.000000
0.251619 0.163741 0.000000
0.256166 0.181994 0.000000
0.251232 0.207512 0.000000
0.231005 0.241526 0.000000
0.206032 0.278388 0.000000
0.177490 0.318941 0.000000
0.156363 0.362188 0.000000
0.135269 0.415511 0.000000
0.117804 0.494284 0.000000
0.115448 0.579557 0.000000
0.112009 0.671013 0.000000
0.135827 0.796717 0.000000
0.162858 0.929658 0.000000
0.367327 0.980772 0.000000
1.000000 0.991779 0.000000
0.000000 0.108645 0.000000
0.032119 0.116365 0.000000
0.050984 0.133423 0.000000
0.070342 0.162858 0.000000
0.089544 0.192851 0.000000
0.103700 0.217190 0.000000
0.114892 0.237255 0.000000
0.121422 0.254928 0.000000
0.121714 0.273127 0.000000
0.113283 0.296468 0.000000
0.103940 0.326590 0.000000
0.096391 0.367616 0.000000
0.092614 0.416915 0.000000
0.086749 0.489575 0.000000
0.086471 0.572215 0.000000
0.087998 0.664419 0.000000
0.097662 0.777319 0.000000
0.136053 0.844100 0.000000
0.133423 0.949016 0.000000
0.395012 0.987943 0.000000
1.000000 0.994668 0.000000
0.000000 0.449696 0.000000
0.005460 0.429725 0.000000
0.012057 0.395012 0.000000
0.019228 0.367327 0.000000
0.026441 0.357612 0.000000
0.032221 0.369215 0.000000
0.037393 0.388833 0.000000
0.041757 0.414611 0.000000
0.045431 0.447819 0.000000
0.048303 0.489810 0.000000
0.051286 0.535095 0.000000
0.054329 0.583473 0.000000
0.057429 0.635278 0.000000
0.060701 0.697678 0.000000
0.065646 0.759288 0.000000
0.074829 0.816024 0.000000
0.086986 0.876285 0.000000
0.112432 0.890007 0.000000
0.116365 0.967881 0.000000
0.429725 0.994540 0.000000
1.000000 0.998052 0.000000
0.000000 1.000000 0.000000
0.001948 1.000000 0.000000
0.005332 1.000000 0.000000
0.008221 1.000000 0.000000
0.010871 1.000000 0.000000
0.013042 1.000000 0.000000
0.015170 1.000000 0.000000
0.017251 1.000000 0.000000
0.019450 1.000000 0.000000
0.022032 1.000000 0.000000
0.025236 1.000000 0.000000
0.029102 1.000000 0.000000
0.033698 1.000000 0.000000
0.039242 1.000000 0.000000
0.046446 1.000000 0.000000
0.054480 1.000000 0.000000
0.066386 1.000000 0.000000
0.081128 1.000000 0.000000
0.108645 1.000000 0.000000
0.449696 1.000000 0.000000
1.000000 1.000000 0.000000
0.000000 0.000000 0.082500
0.550304 0.000000 0.082500
0.891355 0.000000 0.082500
0.918872 0.000000 0.082500
0.933614 0.000000 0.082500
0.945520 0.000000 0.082500
0.953554 0.000000 0.082500
0.960758 0.000000 0.082500
0.966302 0.000000 0.082500
0.970898 0.000000 0.082500
0.974764 0.000000 0.082500
0.977968 0.000000 0.082500
0.980550 0.000000 0.082500
0.982749 0.000000 0.082500
0.984830 0.000000 0.082500
0.986958 0.000000 0.082500
0.989129 0.000000 0.082500
0.991779 0.000000 0.082500
0.994668 0.000000 0.082500
0.998052 0.000000 0.082500
1.000000 0.000000 0.082500
0.000000 0.001948 0.082500
0.570275 0.005460 0.082500
0.883635 0.032119 0.082500
0.887568 0.109993 0.082500
0.913014 0.123715 0.082500
0.925171 0.183976 0.082500
0.934354 0.240712 0.082500
0.939299 0.302322 0.082500
0.942571 0.364722 0.082500
0.945671 0.416527 0.082500
0.948714 0.464905 0.082500
0.951697 0.510190 0.082500
0.954569 0.552181 0.082500
0.958243 0.585389 0.082500
0.962607 0.611167 0.082500
0.967779 0.630785 0.082500
0.973559 0.642388 0.082500
0.980772 0.632673 0.082500
0.987943 0.604988 0.082500
0.994540 0.570275 0.082500
1.000000 0.550304 0.082500
0.000000 0.005332 0.082500
0.604988 0.012057 0.082500
0.866577 0.050984 0.082500
0.863947 0.155900 0.082500
0.902338 0.222681 0.082500
0.912002 0.335581 0.082500
0.913529 0.427785 0.082500
0.913251 0.510425 0.082500
0.907386 0.583085 0.082500
0.903609 0.632384 0.082500
0.896060 0.673410 0.082500
0.886717 0.703532 0.082500
0.878286 0.726873 0.082500
0.878578 0.745072 0.082500
0.885108 0.762745 0.082500
0.896300 0.782810 0.082500
0.910456 0.807149 0.082500
0.929658 0.837142 0.082500
0.949016 0.866577 0.082500
0.967881 0.883635 0.082500
1.000000 0.891355 0.082500
0.000000 0.008221 0.082500
0.632673 0.019228 0.082500
0.837142 0.070342 0.082500
0.864173 0.203283 0.082500
0.887991 0.328987 0.082500
0.884552 0.420443 0.082500
0.882196 0.505716 0.082500
0.864731 0.584489 0.082500
0.843637 0.637812 0.082500
0.822510 0.681059 0.082500
0.793968 0.721612 0.082500
0.768995 0.758474 0.082500
0.748768 0.792488 0.082500
0.743834 0.818006 0.082500
0.748381 0.836259 0.082500
0.758350 0.849297 0.082500
0.773615 0.858551 0.082500
0.796717 0.864173 0.082500
0.844100 0.863947 0.082500
0.890007 0.887568 0.082500
1.000000 0.918872 0.082500
0.000000 0.010871 0.082500
0.642388 0.026441 0.082500
0.807149 0.089544 0.082500
0.858551 0.226385 0.082500
0.853381 0.372039 0.082500
0.855353 0.458335 0.082500
0.844473 0.556961 0.082500
0.801572 0.625230 0.082500
0.767225 0.673055 0.082500
0.730405 0.711595 0.082500
0.694441 0.739806 0.082500
0.671784 0.758906 0.082500
0.649161 0.770837 0.082500
0.632583 0.783539 0.082500
0.622193 0.800369 0.082500
0.618551 0.823675 0.082500
0.627961 0.853381 0.082500
0.671013 0.887991 0.082500
0.777319 0.902338 0.082500
0.876285 0.913014 0.082500
1.000000 0.933614 0.082500
0.000000 0.013042 0.082500
0.630785 0.032221 0.082500
0.782810 0.103700 0.082500
0.849297 0.241650 0.082500
0.823675 0.381449 0.082500
0.830646 0.481849 0.082500
0.807408 0.569037 0.082500
0.755512 0.621840 0.082500
0.713401 0.665464 0.082500
0.669036 0.696642 0.082500
0.620230 0.718335 0.082500
0.575192 0.737018 0.082500
0.533412 0.755867 0.082500
0.513119 0.780901 0.082500
0.505430 0.805592 0.082500
0.518151 0.830646 0.082500
0.541665 0.855353 0.082500
0.579557 0.884552 0.082500
0.664419 0.912002 0.082500
0.816024 0.925171 0.082500
1.000000 0.945520 0.082500
0.000000 0.015170 0.082500
0.611167 0.037393 0.082500
0.762745 0.114892 0.082500
0.836259 0.251619 0.082500
0.800369 0.377807 0.082500
0.805592 0.494570 0.082500
0.765508 0.565955 0.082500
0.713735 0.611026 0.082500
0.661746 0.649409 0.082500
0.612799 0.672886 0.082500
0.563616 0.687713 0.082500
0.522118 0.703450 0.082500
0.485031 0.715689 0.082500
0.456227 0.738600 0.082500
0.434045 0.765508 0.082500
0.430963 0.807408 0.082500
0.443039 0.844473 0.082500
0.494284 0.882196 0.082500
0.572215 0.913529 0.082500
0.759288 0.934354 0.082500
1.000000 0.953554 0.082500
0.000000 0.017251 0.082500
0.585389 0.041757 0.082500
0.745072 0.121422 0.082500
0.818006 0.256166 0.082500
0.783539 0.367417 0.082500
0.780901 0.486881 0.082500
0.738600 0.543773 0.082500
0.684694 0.588571 0.082500
0.630317 0.616873 0.082500
0.580264 0.634822 0.082500
0.529817 0.645056 0.082500
0.483646 0.652759 0.082500
0.442230 0.662259 0.082500
0.411429 0.684694 0.082500
0.388974 0.713735 0.082500
0.378160 0.755512 0.082500
0.374770 0.801572 0.082500
0.415511 0.864731 0.082500
0.489575 0.913251 0.082500
0.697678 0.939299 0.082500
1.000000 0.960758 0.082500
0.000000 0.019450 0.082500
0.552181 0.045431 0.082500
0.726873 0.121714 0.082500
0.792488 0.251232 0.082500
0.770837 0.350839 0.082500
0.755867 0.466588 0.082500
0.715689 0.514969 0.082500
0.662259 0.557770 0.082500
0.606837 0.576832 0.082500
0.556904 0.592013 0.082500
0.509082 0.596186 0.082500
0.465257 0.601313 0.082500
0.423168 0.606837 0.082500
0.383127 0.630317 0.082500
0.350591 0.661746 0.082500
0.334536 0.713401 0.082500
0.326945 0.767225 0.082500
0.362188 0.843637 0.082500
0.416915 0.907386 0.082500
0.635278 0.942571 0.082500
1.000000 0.966302 0.082500
0.000000 0.022032 0.082500
0.510190 0.048303 0.082500
0.703532 0.113283 0.082500
0.758474 0.231005 0.082500
0.758906 0.328216 0.082500
0.737018 0.424808 0.082500
0.703450 0.477882 0.082500
0.652759 0.516354 0.082500
0.601313 0.534743 0.082500
0.550552 0.546062 0.082500
0.501395 0.547808 0.082500
0.453938 0.550552 0.082500
0.407987 0.556904 0.082500
0.365178 0.580264 0.082500
0.327114 0.612799 0.082500
0.303358 0.669036 0.082500
0.288405 0.730405 0.082500
0.318941 0.822510 0.082500
0.367616 0.903609 0.082500
0.583473 0.945671 0.082500
1.000000 0.970898 0.082500
0.000000 0.025236 0.082500
0.464905 0.051286 0.082500
0.673410 0.103940 0.082500
0.721612 0.206032 0.082500
0.739806 0.305559 0.082500
0.718335 0.379770 0.082500
0.687713 0.436384 0.082500
0.645056 0.470183 0.082500
0.596186 0.490918 0.082500
0.547808 0.498605 0.082500
0.500000 0.500000 0.082500
0.452192 0.501395 0.082500
0.403814 0.509082 0.082500
0.354944 0.529817 0.082500
0.312287 0.563616 0.082500
0.281665 0.620230 0.082500
0.260194 0.694441 0.082500
0.278388 0.793968 0.082500
0.326590 0.896060 0.082500
0.535095 0.948714 0.082500
1.000000 0.974764 0.082500
0.000000 0.029102 0.082500
0.416527 0.054329 0.082500
0.632384 0.096391 0.082500
0.681059 0.177490 0.082500
0.711595 0.269595 0.082500
0.696642 0.330964 0.082500
0.672886 0.387201 0.082500
0.634822 0.419736 0.082500
0.592013 0.443096 0.082500
0.546062 0.449448 0.082500
0.498605 0.452192 0.082500
0.449448 0.453938 0.082500
0.398687 0.465257 0.082500
0.347241 0.483646 0.082500
0.296550 0.522118 0.082500
0.262982 0.575192 0.082500
0.241094 0.671784 0.082500
0.241526 0.768995 0.082500
0.296468 0.886717 0.082500
0.489810 0.951697 0.082500
1.000000 0.977968 0.082500
0.000000 0.033698 0.082500
0.364722 0.057429 0.082500
0.583085 0.092614 0.082500
0.637812 0.156363 0.082500
0.673055 0.232775 0.082500
0.665464 0.286599 0.082500
0.649409 0.338254 0.082500
0.616873 0.369683 0.082500
0.576832 0.393163 0.082500
0.534743 0.398687 0.082500
0.490918 0.403814 0.082500
0.443096 0.407987 0.082500
0.393163 0.423168 0.082500
0.337741 0.442230 0.082500
0.284311 0.485031 0.082500
0.244133 0.533412 0.082500
0.229163 0.649161 0.082500
0.207512 0.748768 0.082500
0.273127 0.878286 0.082500
0.447819 0.954569 0.082500
1.000000 0.980550 0.082500
0.000000 0.039242 0.082500
0.302322 0.060701 0.082500
0.510425 0.086749 0.082500
0.584489 0.135269 0.082500
0.625230 0.198428 0.082500
0.621840 0.244488 0.082500
0.611026 0.286265 0.082500
0.588571 0.315306 0.082500
0.557770 0.337741 0.082500
0.516354 0.347241 0.082500
0.470183 0.354944 0.082500
0.419736 0.365178 0.082500
0.369683 0.383127 0.082500
0.315306 0.411429 0.082500
0.261400 0.456227 0.082500
0.219099 0.513119 0.082500
0.216461 0.632583 0.082500
0.181994 0.743834 0.082500
0.254928 0.878578 0.082500
0.414611 0.958243 0.082500
1.000000 0.982749 0.082500
0.000000 0.046446 0.082500
0.240712 0.065646 0.082500
0.427785 0.086471 0.082500
0.505716 0.117804 0.082500