# vtk DataFile Version 2.0
Mesh for Fierro
ASCII 
DATASET UNSTRUCTURED_GRID

POINTS 2205 float
0.000000 0.000000 0.000000
0.527648 0.000000 0.000000
0.910794 0.000000 0.000000
0.950838 0.000000 0.000000
0.958107 0.000000 0.000000
0.965274 0.000000 0.000000
0.970784 0.000000 0.000000
0.976235 0.000000 0.000000
0.980568 0.000000 0.000000
0.983985 0.000000 0.000000
0.986867 0.000000 0.000000
0.988444 0.000000 0.000000
0.989059 0.000000 0.000000
0.989585 0.000000 0.000000
0.990006 0.000000 0.000000
0.990502 0.000000 0.000000
0.991041 0.000000 0.000000
0.991927 0.000000 0.000000
0.993908 0.000000 0.000000
0.997857 0.000000 0.000000
1.000000 0.000000 0.000000
0.000000 0.002143 0.000000
0.584412 0.004901 0.000000
0.924491 0.046166 0.000000
0.914148 0.169275 0.000000
0.928377 0.209626 0.000000
0.935135 0.273563 0.000000
0.939475 0.330861 0.000000
0.939307 0.407934 0.000000
0.939119 0.483135 0.000000
0.940763 0.540282 0.000000
0.943022 0.594768 0.000000
0.946346 0.638450 0.000000
0.950996 0.663541 0.000000
0.955263 0.690611 0.000000
0.959889 0.710315 0.000000
0.964844 0.724189 0.000000
0.970573 0.727588 0.000000
0.978193 0.706987 0.000000
0.986897 0.664859 0.000000
0.995099 0.584412 0.000000
1.000000 0.527648 0.000000
0.000000 0.006092 0.000000
0.664859 0.013103 0.000000
0.915271 0.092588 0.000000
0.883047 0.241729 0.000000
0.914242 0.310211 0.000000
0.914527 0.454442 0.000000
0.908493 0.568156 0.000000
0.907060 0.654655 0.000000
0.900527 0.717177 0.000000
0.895580 0.753601 0.000000
0.881800 0.774883 0.000000
0.872043 0.785055 0.000000
0.873622 0.798260 0.000000
0.871876 0.811908 0.000000
0.869513 0.826056 0.000000
0.869167 0.841696 0.000000
0.871376 0.860138 0.000000
0.883512 0.886927 0.000000
0.907412 0.915271 0.000000
0.953834 0.924491 0.000000
1.000000 0.910794 0.000000
0.000000 0.008073 0.000000
0.706987 0.021807 0.000000
0.886927 0.116488 0.000000
0.882549 0.301366 0.000000
0.892765 0.450935 0.000000
0.881080 0.557919 0.000000
0.869269 0.640022 0.000000
0.846420 0.689809 0.000000
0.809589 0.724801 0.000000
0.773944 0.752013 0.000000
0.719486 0.781333 0.000000
0.678847 0.810707 0.000000
0.675679 0.826508 0.000000
0.670902 0.842004 0.000000
0.668259 0.855811 0.000000
0.669201 0.867881 0.000000
0.674911 0.877903 0.000000
0.698634 0.882549 0.000000
0.758271 0.883047 0.000000
0.830725 0.914148 0.000000
1.000000 0.950838 0.000000
0.000000 0.008959 0.000000
0.727588 0.029427 0.000000
0.860138 0.128624 0.000000
0.877903 0.325089 0.000000
0.852397 0.494414 0.000000
0.849771 0.572661 0.000000
0.823895 0.661219 0.000000
0.755926 0.711348 0.000000
0.696143 0.743077 0.000000
0.653799 0.765205 0.000000
0.619812 0.779159 0.000000
0.579638 0.780725 0.000000
0.548978 0.790134 0.000000
0.526365 0.797986 0.000000
0.511884 0.809900 0.000000
0.502412 0.826874 0.000000
0.505586 0.852397 0.000000
0.549065 0.892765 0.000000
0.689789 0.914242 0.000000
0.790374 0.928377 0.000000
1.000000 0.958107 0.000000
0.000000 0.009498 0.000000
0.724189 0.035156 0.000000
0.841696 0.130833 0.000000
0.867881 0.330799 0.000000
0.826874 0.497588 0.000000
0.817170 0.591756 0.000000
0.786116 0.664586 0.000000
0.707378 0.697960 0.000000
0.648282 0.718949 0.000000
0.597308 0.733748 0.000000
0.535996 0.734359 0.000000
0.482250 0.739972 0.000000
0.437424 0.745888 0.000000
0.411827 0.763235 0.000000
0.398429 0.785707 0.000000
0.408244 0.817170 0.000000
0.427339 0.849771 0.000000
0.442081 0.881080 0.000000
0.545558 0.914527 0.000000
0.726437 0.935135 0.000000
1.000000 0.965274 0.000000
0.000000 0.009994 0.000000
0.710315 0.040111 0.000000
0.826056 0.130487 0.000000
0.855811 0.331741 0.000000
0.809900 0.488116 0.000000
0.785707 0.601571 0.000000
0.735648 0.659433 0.000000
0.662425 0.675391 0.000000
0.600915 0.691507 0.000000
0.543757 0.696764 0.000000
0.489431 0.692796 0.000000
0.445431 0.694834 0.000000
0.405094 0.693047 0.000000
0.368785 0.709266 0.000000
0.340567 0.735648 0.000000
0.335414 0.786116 0.000000
0.338781 0.823895 0.000000
0.359978 0.869269 0.000000
0.431844 0.908493 0.000000
0.669139 0.939475 0.000000
1.000000 0.970784 0.000000
0.000000 0.010415 0.000000
0.690611 0.044737 0.000000
0.811908 0.128124 0.000000
0.842004 0.329098 0.000000
0.797986 0.473635 0.000000
0.763235 0.588173 0.000000
0.709266 0.631215 0.000000
0.640104 0.644743 0.000000
0.577503 0.656234 0.000000
0.523283 0.652094 0.000000
0.471507 0.641124 0.000000
0.427156 0.632777 0.000000
0.388790 0.627757 0.000000
0.355257 0.640104 0.000000
0.324609 0.662425 0.000000
0.302040 0.707378 0.000000
0.288652 0.755926 0.000000
0.310191 0.846420 0.000000
0.345345 0.907060 0.000000
0.592066 0.939307 0.000000
1.000000 0.976235 0.000000
0.000000 0.010941 0.000000
0.663541 0.049004 0.000000
0.798260 0.126378 0.000000
0.826508 0.324321 0.000000
0.790134 0.451022 0.000000
0.745888 0.562576 0.000000
0.693047 0.594906 0.000000
0.627757 0.611210 0.000000
0.567372 0.611370 0.000000
0.517409 0.604755 0.000000
0.472933 0.592076 0.000000
0.430774 0.577882 0.000000
0.388630 0.567372 0.000000
0.343766 0.577503 0.000000
0.308493 0.600915 0.000000
0.281051 0.648282 0.000000
0.256923 0.696143 0.000000
0.275199 0.809589 0.000000
0.282823 0.900527 0.000000
0.516865 0.939119 0.000000
1.000000 0.980568 0.000000
0.000000 0.011556 0.000000
0.638450 0.053654 0.000000
0.785055 0.127957 0.000000
0.810707 0.321153 0.000000
0.780725 0.420362 0.000000
0.739972 0.517750 0.000000
0.694834 0.554569 0.000000
0.632777 0.572844 0.000000
0.577882 0.569226 0.000000
0.528254 0.560528 0.000000
0.482749 0.543869 0.000000
0.439472 0.528254 0.000000
0.395245 0.517409 0.000000
0.347906 0.523283 0.000000
0.303236 0.543757 0.000000
0.266252 0.597308 0.000000
0.234795 0.653799 0.000000
0.247987 0.773944 0.000000
0.246399 0.895580 0.000000
0.459718 0.940763 0.000000
1.000000 0.983985 0.000000
0.000000 0.013133 0.000000
0.594768 0.056978 0.000000
0.774883 0.118200 0.000000
0.781333 0.280514 0.000000
0.779159 0.380188 0.000000
0.734359 0.464004 0.000000
0.692796 0.510569 0.000000
0.641124 0.528493 0.000000
0.592076 0.527067 0.000000
0.543869 0.517251 0.000000
0.500000 0.500000 0.000000
0.456131 0.482749 0.000000
0.407924 0.472933 0.000000
0.358876 0.471507 0.000000
0.307204 0.489431 0.000000
0.265641 0.535996 0.000000
0.220841 0.619812 0.000000
0.218667 0.719486 0.000000
0.225117 0.881800 0.000000
0.405232 0.943022 0.000000
1.000000 0.986867 0.000000
0.000000 0.016015 0.000000
0.540282 0.059237 0.000000
0.753601 0.104420 0.000000
0.752013 0.226056 0.000000
0.765205 0.346201 0.000000
0.733748 0.402692 0.000000
0.696764 0.456243 0.000000
0.652094 0.476717 0.000000
0.604755 0.482591 0.000000
0.560528 0.471746 0.000000
0.517251 0.456131 0.000000
0.471746 0.439472 0.000000
0.422118 0.430774 0.000000
0.367223 0.427156 0.000000
0.305166 0.445431 0.000000
0.260028 0.482250 0.000000
0.219275 0.579638 0.000000
0.189293 0.678847 0.000000
0.214945 0.872043 0.000000
0.361550 0.946346 0.000000
1.000000 0.988444 0.000000
0.000000 0.019432 0.000000
0.483135 0.060881 0.000000
0.717177 0.099473 0.000000
0.724801 0.190411 0.000000
0.743077 0.303857 0.000000
0.718949 0.351718 0.000000
0.691507 0.399085 0.000000
0.656234 0.422497 0.000000
0.611370 0.432628 0.000000
0.569226 0.422118 0.000000
0.527067 0.407924 0.000000
0.482591 0.395245 0.000000
0.432628 0.388630 0.000000
0.372243 0.388790 0.000000
0.306953 0.405094 0.000000
0.254112 0.437424 0.000000
0.209866 0.548978 0.000000
0.173492 0.675679 0.000000
0.201740 0.873622 0.000000
0.336459 0.950996 0.000000
1.000000 0.989059 0.000000
0.000000 0.023765 0.000000
0.407934 0.060693 0.000000
0.654655 0.092940 0.000000
0.689809 0.153580 0.000000
0.711348 0.244074 0.000000
0.697960 0.292622 0.000000
0.675391 0.337575 0.000000
0.644743 0.359896 0.000000
0.611210 0.372243 0.000000
0.572844 0.367223 0.000000
0.528493 0.358876 0.000000
0.476717 0.347906 0.000000
0.422497 0.343766 0.000000
0.359896 0.355257 0.000000
0.290734 0.368785 0.000000
0.236765 0.411827 0.000000
0.202014 0.526365 0.000000
0.157996 0.670902 0.000000
0.188092 0.871876 0.000000
0.309389 0.955263 0.000000
1.000000 0.989585 0.000000
0.000000 0.029216 0.000000
0.330861 0.060525 0.000000
0.568156 0.091507 0.000000
0.640022 0.130731 0.000000
0.661219 0.176105 0.000000
0.664586 0.213884 0.000000
0.659433 0.264352 0.000000
0.631215 0.290734 0.000000
0.594906 0.306953 0.000000
0.554569 0.305166 0.000000
0.510569 0.307204 0.000000
0.456243 0.303236 0.000000
0.399085 0.308493 0.000000
0.337575 0.324609 0.000000
0.264352 0.340567 0.000000
0.214293 0.398429 0.000000
0.190100 0.511884 0.000000
0.144189 0.668259 0.000000
0.173944 0.869513 0.000000
0.289685 0.959889 0.000000
1.000000 0.990006 0.000000
0.000000 0.034726 0.000000
0.273563 0.064865 0.000000
0.454442 0.085473 0.000000
0.557919 0.118920 0.000000
0.572661 0.150229 0.000000
0.591756 0.182830 0.000000
0.601571 0.214293 0.000000
0.588173 0.236765 0.000000
0.562576 0.254112 0.000000
0.517750 0.260028 0.000000
0.464004 0.265641 0.000000
0.402692 0.266252 0.000000
0.351718 0.281051 0.000000
0.292622 0.302040 0.000000
0.213884 0.335414 0.000000
0.182830 0.408244 0.000000
0.173126 0.502412 0.000000
0.132119 0.669201 0.000000
0.158304 0.869167 0.000000
0.275811 0.964844 0.000000
1.000000 0.990502 0.000000
0.000000 0.041893 0.000000
0.209626 0.071623 0.000000
0.310211 0.085758 0.000000
0.450935 0.107235 0.000000
0.494414 0.147603 0.000000
0.497588 0.173126 0.000000
0.488116 0.190100 0.000000
0.473635 0.202014 0.000000
0.451022 0.209866 0.000000
0.420362 0.219275 0.000000
0.380188 0.220841 0.000000
0.346201 0.234795 0.000000
0.303857 0.256923 0.000000
0.244074 0.288652 0.000000
0.176105 0.338781 0.000000
0.150229 0.427339 0.000000
0.147603 0.505586 0.000000
0.122097 0.674911 0.000000
0.139862 0.871376 0.000000
0.272412 0.970573 0.000000
1.000000 0.991041 0.000000
0.000000 0.049162 0.000000
0.169275 0.085852 0.000000
0.241729 0.116953 0.000000
0.301366 0.117451 0.000000
0.325089 0.122097 0.000000
0.330799 0.132119 0.000000
0.331741 0.144189 0.000000
0.329098 0.157996 0.000000
0.324321 0.173492 0.000000
[...]
POINT_DATA 2205 
VECTORS pos float 
0.000000 0.000000 0.000000
0.527648 0.000000 0.000000
0.910794 0.000000 0.000000
0.950838 0.000000 0.000000
0.958107 0.000000 0.000000
0.965274 0.000000 0.000000
0.970784 0.000000 0.000000
0.976235 0.000000 0.000000
0.980568 0.000000 0.000000
0.983985 0.000000 0.000000
0.986867 0.000000 0.000000
0.988444 0.000000 0.000000
0.989059 0.000000 0.000000
0.989585 0.000000 0.000000
0.990006 0.000000 0.000000
0.990502 0.000000 0.000000
0.991041 0.000000 0.000000
0.991927 0.000000 0.000000
0.993908 0.000000 0.000000
0.997857 0.000000 0.000000
1.000000 0.000000 0.000000
0.000000 0.002143 0.000000
0.584412 0.004901 0.000000
0.924491 0.046166 0.000000
0.914148 0.169275 0.000000
0.928377 0.209626 0.000000
0.935135 0.273563 0.000000
0.939475 0.330861 0.000000
0.939307 0.407934 0.000000
0.939119 0.483135 0.000000
0.940763 0.540282 0.000000
0.943022 0.594768 0.000000
0.946346 0.638450 0.000000
0.950996 0.663541 0.000000
0.955263 0.690611 0.000000
0.959889 0.710315 0.000000
0.964844 0.724189 0.000000
0.970573 0.727588 0.000000
0.978193 0.706987 0.000000
0.986897 0.664859 0.000000
0.995099 0.584412 0.000000
1.000000 0.527648 0.000000
0.000000 0.006092 0.000000
0.664859 0.013103 0.000000
0.915271 0.092588 0.000000
0.883047 0.241729 0.000000
0.914242 0.310211 0.000000
0.914527 0.454442 0.000000
0.908493 0.568156 0.000000
0.907060 0.654655 0.000000
0.900527 0.717177 0.000000
0.895580 0.753601 0.000000
0.881800 0.774883 0.000000
0.872043 0.785055 0.000000
0.873622 0.798260 0.000000
0.871876 0.811908 0.000000
0.869513 0.826056 0.000000
0.869167 0.841696 0.000000
0.871376 0.860138 0.000000
0.883512 0.886927 0.000000
0.907412 0.915271 0.000000
0.953834 0.924491 0.000000
1.000000 0.910794 0.000000
0.000000 0.008073 0.000000
0.706987 0.021807 0.000000
0.886927 0.116488 0.000000
0.882549 0.301366 0.000000
0.892765 0.450935 0.000000
0.881080 0.557919 0.000000
0.869269 0.640022 0.000000
0.846420 0.689809 0.000000
0.809589 0.724801 0.000000
0.773944 0.752013 0.000000
0.719486 0.781333 0.000000
0.678847 0.810707 0.000000
0.675679 0.826508 0.000000
0.670902 0.842004 0.000000
0.668259 0.855811 0.000000
0.669201 0.867881 0.000000
0.674911 0.877903 0.000000
0.698634 0.882549 0.000000
0.758271 0.883047 0.000000
0.830725 0.914148 0.000000
1.000000 0.950838 0.000000
0.000000 0.008959 0.000000
0.727588 0.029427 0.000000
0.860138 0.128624 0.000000
0.877903 0.325089 0.000000
0.852397 0.494414 0.000000
0.849771 0.572661 0.000000
0.823895 0.661219 0.000000
0.755926 0.711348 0.000000
0.696143 0.743077 0.000000
0.653799 0.765205 0.000000
0.619812 0.779159 0.000000
0.579638 0.780725 0.000000
0.548978 0.790134 0.000000
0.526365 0.797986 0.000000
0.511884 0.809900 0.000000
0.502412 0.826874 0.000000
0.505586 0.852397 0.000000
0.549065 0.892765 0.000000
0.689789 0.914242 0.000000
0.790374 0.928377 0.000000
1.000000 0.958107 0.000000
0.000000 0.009498 0.000000
0.724189 0.035156 0.000000
0.841696 0.130833 0.000000
0.867881 0.330799 0.000000
0.826874 0.497588 0.000000
0.817170 0.591756 0.000000
0.786116 0.664586 0.000000
0.707378 0.697960 0.000000
0.648282 0.718949 0.000000
0.597308 0.733748 0.000000
0.535996 0.734359 0.000000
0.482250 0.739972 0.000000
0.437424 0.745888 0.000000
0.411827 0.763235 0.000000
0.398429 0.785707 0.000000
0.408244 0.817170 0.000000
0.427339 0.849771 0.000000
0.442081 0.881080 0.000000
0.545558 0.914527 0.000000
0.726437 0.935135 0.000000
1.000000 0.965274 0.000000
0.000000 0.009994 0.000000
0.710315 0.040111 0.000000
0.826056 0.130487 0.000000
0.855811 0.331741 0.000000
0.809900 0.488116 0.000000
0.785707 0.601571 0.000000
0.735648 0.659433 0.000000
0.662425 0.675391 0.000000
0.600915 0.691507 0.000000
0.543757 0.696764 0.000000
0.489431 0.692796 0.000000
0.445431 0.694834 0.000000
0.405094 0.693047 0.000000
0.368785 0.709266 0.000000
0.340567 0.735648 0.000000
0.335414 0.786116 0.000000
0.338781 0.823895 0.000000
0.359978 0.869269 0.000000
0.431844 0.908493 0.000000
0.669139 0.939475 0.000000
1.000000 0.970784 0.000000
0.000000 0.010415 0.000000
0.690611 0.044737 0.000000
0.811908 0.128124 0.000000
0.842004 0.329098 0.000000
0.797986 0.473635 0.000000
0.763235 0.588173 0.000000
0.709266 0.631215 0.000000
0.640104 0.644743 0.000000
0.577503 0.656234 0.000000
0.523283 0.652094 0.000000
0.471507 0.641124 0.000000
0.427156 0.632777 0.000000
0.388790 0.627757 0.000000
0.355257 0.640104 0.000000
0.324609 0.662425 0.000000
0.302040 0.707378 0.000000
0.288652 0.755926 0.000000
0.310191 0.846420 0.000000
0.345345 0.907060 0.000000
0.592066 0.939307 0.000000
1.000000 0.976235 0.000000
0.000000 0.010941 0.000000
0.663541 0.049004 0.000000
0.798260 0.126378 0.000000
0.826508 0.324321 0.000000
0.790134 0.451022 0.000000
0.745888 0.562576 0.000000
0.693047 0.594906 0.000000
0.627757 0.611210 0.000000
0.567372 0.611370 0.000000
0.517409 0.604755 0.000000
0.472933 0.592076 0.000000
0.430774 0.577882 0.000000
0.388630 0.567372 0.000000
0.343766 0.577503 0.000000
0.308493 0.600915 0.000000
0.281051 0.648282 0.000000
0.256923 0.696143 0.000000
0.275199 0.809589 0.000000
0.282823 0.900527 0.000000
0.516865 0.939119 0.000000
1.000000 0.980568 0.000000
0.000000 0.011556 0.000000
0.638450 0.053654 0.000000
0.785055 0.127957 0.000000
0.810707 0.321153 0.000000
0.780725 0.420362 0.000000
0.739972 0.517750 0.000000
0.694834 0.554569 0.000000
0.632777 0.572844 0.000000
0.577882 0.569226 0.000000
0.528254 0.560528 0.000000
0.482749 0.543869 0.000000
0.439472 0.528254 0.000000
0.395245 0.517409 0.000000
0.347906 0.523283 0.000000
0.303236 0.543757 0.000000
0.266252 0.597308 0.000000
0.234795 0.653799 0.000000
0.247987 0.773944 0.000000
0.246399 0.895580 0.000000
0.459718 0.940763 0.000000
1.000000 0.983985 0.000000
0.000000 0.013133 0.000000
0.594768 0.056978 0.000000
0.774883 0.118200 0.000000
0.781333 0.280514 0.000000
0.779159 0.380188 0.000000
0.734359 0.464004 0.000000
0.692796 0.510569 0.000000
0.641124 0.528493 0.000000
0.592076 0.527067 0.000000
0.543869 0.517251 0.000000
0.500000 0.500000 0.000000
0.456131 0.482749 0.000000
0.407924 0.472933 0.000000
0.358876 0.471507 0.000000
0.307204 0.489431 0.000000
0.265641 0.535996 0.000000
0.220841 0.619812 0.000000
0.218667 0.719486 0.000000
0.225117 0.881800 0.000000
0.405232 0.943022 0.000000
1.000000 0.986867 0.000000
0.000000 0.016015 0.000000
0.540282 0.059237 0.000000
0.753601 0.104420 0.000000
0.752013 0.226056 0.000000
0.765205 0.346201 0.000000
0.733748 0.402692 0.000000
0.696764 0.456243 0.000000
0.652094 0.476717 0.000000
0.604755 0.482591 0.000000
0.560528 0.471746 0.000000
0.517251 0.456131 0.000000
0.471746 0.439472 0.000000
0.422118 0.430774 0.000000
0.367223 0.427156 0.000000
0.305166 0.445431 0.000000
0.260028 0.482250 0.000000
0.219275 0.579638 0.000000
0.189293 0.678847 0.000000
0.214945 0.872043 0.000000
0.361550 0.946346 0.000000
1.000000 0.988444 0.000000
0.000000 0.019432 0.000000
0.483135 0.060881 0.000000
0.717177 0.099473 0.000000
0.724801 0.190411 0.000000
0.743077 0.303857 0.000000
0.718949 0.351718 0.000000
0.691507 0.399085 0.000000
0.656234 0.422497 0.000000
0.611370 0.432628 0.000000
0.569226 0.422118 0.000000
0.527067 0.407924 0.000000
0.482591 0.395245 0.000000
0.432628 0.388630 0.000000
0.372243 0.388790 0.000000
0.306953 0.405094 0.000000
0.254112 0.437424 0.000000
0.209866 0.548978 0.000000
0.173492 0.675679 0.000000
0.201740 0.873622 0.000000
0.336459 0.950996 0.000000
1.000000 0.989059 0.000000
0.000000 0.023765 0.000000
0.407934 0.060693 0.000000
0.654655 0.092940 0.000000
0.689809 0.153580 0.000000
0.711348 0.244074 0.000000
0.697960 0.292622 0.000000
0.675391 0.337575 0.000000
0.644743 0.359896 0.000000
0.611210 0.372243 0.000000
0.572844 0.367223 0.000000
0.528493 0.358876 0.000000
0.476717 0.347906 0.000000
0.422497 0.343766 0.000000
0.359896 0.355257 0.000000
0.290734 0.368785 0.000000
0.236765 0.411827 0.000000
0.202014 0.526365 0.000000
0.157996 0.670902 0.000000
0.188092 0.871876 0.000000
0.309389 0.955263 0.000000
1.000000 0.989585 0.000000
0.000000 0.029216 0.000000
0.330861 0.060525 0.000000
0.568156 0.091507 0.000000
0.640022 0.130731 0.000000
0.661219 0.176105 0.000000
0.664586 0.213884 0.000000
0.659433 0.264352 0.000000
0.631215 0.290734 0.000000
0.594906 0.306953 0.000000
0.554569 0.305166 0.000000
0.510569 0.307204 0.000000
0.456243 0.303236 0.000000
0.399085 0.308493 0.000000
0.337575 0.324609 0.000000
0.264352 0.340567 0.000000
0.214293 0.398429 0.000000
0.190100 0.511884 0.000000
0.144189 0.668259 0.000000
0.173944 0.869513 0.000000
0.289685 0.959889 0.000000
1.000000 0.990006 0.000000
0.000000 0.034726 0.000000
0.273563 0.064865 0.000000
0.454442 0.085473 0.000000
0.557919 0.118920 0.000000
0.572661 0.150229 0.000000
0.591756 0.182830 0.000000
0.601571 0.214293 0.000000
0.588173 0.236765 0.000000
0.562576 0.254112 0.000000
0.517750 0.260028 0.000000
0.464004 0.265641 0.000000
0.402692 0.266252 0.000000
0.351718 0.281051 0.000000
0.292622 0.302040 0.000000
0.213884 0.335414 0.000000
0.182830 0.408244 0.000000
0.173126 0.502412 0.000000
0.132119 0.669201 0.000000
0.158304 0.869167 0.000000
0.275811 0.964844 0.000000
1.000000 0.990502 0.000000
0.000000 0.041893 0.000000
0.209626 0.071623 0.000000
0.310211 0.085758 0.000000
0.450935 0.107235 0.000000
0.494414 0.147603 0.000000
0.497588 0.173126 0.000000
0.488116 0.190100 0.000000
0.473635 0.202014 0.000000
0.451022 0.209866 0.000000
0.420362 0.219275 0.000000
0.380188 0.220841 0.000000
0.346201 0.234795 0.000000
0.303857 0.256923 0.000000
0.244074 0.288652 0.000000
0.176105 0.338781 0.000000
0.150229 0.427339 0.000000
0.147603 0.505586 0.000000
0.122097 0.674911 0.000000
0.139862 0.871376 0.000000
0.272412 0.970573 0.000000
1.000000 0.991041 0.000000
0.000000 0.049162 0.000000
0.169275 0.085852 0.000000
0.241729 0.116953 0.000000
0.301366 0.117451 0.000000
0.325089 0.122097 0.000000
0.330799 0.132119 0.000000
0.331741 0.144189 0.000000
0.329098 0.157996 0.000000
0.324321 0.173492 0.000000
0.321153 0.189293 0.000000
0.280514 0.218667 0.000000
0.226056 0.247987 0.000000
0.190411 0.275199 0.000000
0.153580 0.310191 0.000000
0.130731 0.359978 0.000000
0.118920 0.442081 0.000000
0.107235 0.549065 0.000000
0.117451 0.698634 0.000000
0.113073 0.883512 0.000000
0.293013 0.978193 0.000000
1.000000 0.991927 0.000000
0.000000 0.089206 0.000000
0.046166 0.075509 0.000000
0.092588 0.084729 0.000000
0.116488 0.113073 0.000000
0.128624 0.139862 0.000000
0.130833 0.158304 0.000000
0.130487 0.173944 0.000000
0.128124 0.188092 0.000000
0.126378 0.201740 0.000000
0.127957 0.214945 0.000000
0.118200 0.225117 0.000000
0.104420 0.246399 0.000000
0.099473 0.282823 0.000000
0.092940 0.345345 0.000000
0.091507 0.431844 0.000000
0.085473 0.545558 0.000000
0.085758 0.689789 0.000000
0.116953 0.758271 0.000000
0.084729 0.907412 0.000000
0.335141 0.986897 0.000000
1.000000 0.993908 0.000000
0.000000 0.472352 0.000000
0.004901 0.415588 0.000000
0.013103 0.335141 0.000000
0.021807 0.293013 0.000000
0.029427 0.272412 0.000000
0.035156 0.275811 0.000000
0.040111 0.289685 0.000000
0.044737 0.309389 0.000000
0.049004 0.336459 0.000000
0.053654 0.361550 0.000000
0.056978 0.405232 0.000000
0.059237 0.459718 0.000000
0.060881 0.516865 0.000000
0.060693 0.592066 0.000000
0.060525 0.669139 0.000000
0.064865 0.726437 0.000000
0.071623 0.790374 0.000000
0.085852 0.830725 0.000000
0.075509 0.953834 0.000000
0.415588 0.995099 0.000000
1.000000 0.997857 0.000000
0.000000 1.000000 0.000000
0.002143 1.000000 0.000000
0.006092 1.000000 0.000000
0.008073 1.000000 0.000000
0.008959 1.000000 0.000000
0.009498 1.000000 0.000000
0.009994 1.000000 0.000000
0.010415 1.000000 0.000000
0.010941 1.000000 0.000000
0.011556 1.000000 0.000000
0.013133 1.000000 0.000000
0.016015 1.000000 0.000000
0.019432 1.000000 0.000000
0.023765 1.000000 0.000000
0.029216 1.000000 0.000000
0.034726 1.000000 0.000000
0.041893 1.000000 0.000000
0.049162 1.000000 0.000000
0.089206 1.000000 0.000000
0.472352 1.000000 0.000000
1.000000 1.000000 0.000000
0.000000 0.000000 0.082500
0.527648 0.000000 0.082500
0.910794 0.000000 0.082500
0.950838 0.000000 0.082500
0.958107 0.000000 0.082500
0.965274 0.000000 0.082500
0.970784 0.000000 0.082500
0.976235 0.000000 0.082500
0.980568 0.000000 0.082500
0.983985 0.000000 0.082500
0.986867 0.000000 0.082500
0.988444 0.000000 0.082500
0.989059 0.000000 0.082500
0.989585 0.000000 0.082500
0.990006 0.000000 0.082500
0.990502 0.000000 0.082500
0.991041 0.000000 0.082500
0.991927 0.000000 0.082500
0.993908 0.000000 0.082500
0.997857 0.000000 0.082500
1.000000 0.000000 0.082500
0.000000 0.002143 0.082500
0.584412 0.004901 0.082500
0.924491 0.046166 0.082500
0.914148 0.169275 0.082500
0.928377 0.209626 0.082500
0.935135 0.273563 0.082500
0.939475 0.330861 0.082500
0.939307 0.407934 0.082500
0.939119 0.483135 0.082500
0.940763 0.540282 0.082500
0.943022 0.594768 0.082500
0.946346 0.638450 0.082500
0.950996 0.663541 0.082500
0.955263 0.690611 0.082500
0.959889 0.710315 0.082500
0.964844 0.724189 0.082500
0.970573 0.727588 0.082500
0.978193 0.706987 0.082500
0.986897 0.664859 0.082500
0.995099 0.584412 0.082500
1.000000 0.527648 0.082500
0.000000 0.006092 0.082500
0.664859 0.013103 0.082500
0.915271 0.092588 0.082500
0.883047 0.241729 0.082500
0.914242 0.310211 0.082500
0.914527 0.454442 0.082500
0.908493 0.568156 0.082500
0.907060 0.654655 0.082500
0.900527 0.717177 0.082500
0.895580 0.753601 0.082500
0.881800 0.774883 0.082500
0.872043 0.785055 0.082500
0.873622 0.798260 0.082500
0.871876 0.811908 0.082500
0.869513 0.826056 0.082500
0.869167 0.841696 0.082500
0.871376 0.860138 0.082500
0.883512 0.886927 0.082500
0.907412 0.915271 0.082500
0.953834 0.924491 0.082500
1.000000 0.910794 0.082500
0.000000 0.008073 0.082500
0.706987 0.021807 0.082500
0.886927 0.116488 0.082500
0.882549 0.301366 0.082500
0.892765 0.450935 0.082500
0.881080 0.557919 0.082500
0.869269 0.640022 0.082500
0.846420 0.689809 0.082500
0.809589 0.724801 0.082500
0.773944 0.752013 0.082500
0.719486 0.781333 0.082500
0.678847 0.810707 0.082500
0.675679 0.826508 0.082500
0.670902 0.842004 0.082500
0.668259 0.855811 0.082500
0.669201 0.867881 0.082500
0.674911 0.877903 0.082500
0.698634 0.882549 0.082500
0.758271 0.883047 0.082500
0.830725 0.914148 0.082500
1.000000 0.950838 0.082500
0.000000 0.008959 0.082500
0.727588 0.029427 0.082500
0.860138 0.128624 0.082500
0.877903 0.325089 0.082500
0.852397 0.494414 0.082500
0.849771 0.572661 0.082500
0.823895 0.661219 0.082500
0.755926 0.711348 0.082500
0.696143 0.743077 0.082500
0.653799 0.765205 0.082500
0.619812 0.779159 0.082500
0.579638 0.780725 0.082500
0.548978 0.790134 0.082500
0.526365 0.797986 0.082500
0.511884 0.809900 0.082500
0.502412 0.826874 0.082500
0.505586 0.852397 0.082500
0.549065 0.892765 0.082500
0.689789 0.914242 0.082500
0.790374 0.928377 0.082500
1.000000 0.958107 0.082500
0.000000 0.009498 0.082500
0.724189 0.035156 0.082500
0.841696 0.130833 0.082500
0.867881 0.330799 0.082500
0.826874 0.497588 0.082500
0.817170 0.591756 0.082500
0.786116 0.664586 0.082500
0.707378 0.697960 0.082500
0.648282 0.718949 0.082500
0.597308 0.733748 0.082500
0.535996 0.734359 0.082500
0.482250 0.739972 0.082500
0.437424 0.745888 0.082500
0.411827 0.763235 0.082500
0.398429 0.785707 0.082500
0.408244 0.817170 0.082500
0.427339 0.849771 0.082500
0.442081 0.881080 0.082500
0.545558 0.914527 0.082500
0.726437 0.935135 0.082500
1.000000 0.965274 0.082500
0.000000 0.009994 0.082500
0.710315 0.040111 0.082500
0.826056 0.130487 0.082500
0.855811 0.331741 0.082500
0.809900 0.488116 0.082500
0.785707 0.601571 0.082500
0.735648 0.659433 0.082500
0.662425 0.675391 0.082500
0.600915 0.691507 0.082500
0.543757 0.696764 0.082500
0.489431 0.692796 0.082500
0.445431 0.694834 0.082500
0.405094 0.693047 0.082500
0.368785 0.709266 0.082500
0.340567 0.735648 0.082500
0.335414 0.786116 0.082500
0.338781 0.823895 0.082500
0.359978 0.869269 0.082500
0.431844 0.908493 0.082500
0.669139 0.939475 0.082500
1.000000 0.970784 0.082500
0.000000 0.010415 0.082500
0.690611 0.044737 0.082500
0.811908 0.128124 0.082500
0.842004 0.329098 0.082500
0.797986 0.473635 0.082500
0.763235 0.588173 0.082500
0.709266 0.631215 0.082500
0.640104 0.644743 0.082500
0.577503 0.656234 0.082500
0.523283 0.652094 0.082500
0.471507 0.641124 0.082500
0.427156 0.632777 0.082500
0.388790 0.627757 0.082500
0.355257 0.640104 0.082500
0.324609 0.662425 0.082500
0.302040 0.707378 0.082500
0.288652 0.755926 0.082500
0.310191 0.846420 0.082500
0.345345 0.907060 0.082500
0.592066 0.939307 0.082500
1.000000 0.976235 0.082500
0.000000 0.010941 0.082500
0.663541 0.049004 0.082500
0.798260 0.126378 0.082500
0.826508 0.324321 0.082500
0.790134 0.451022 0.082500
0.745888 0.562576 0.082500
0.693047 0.594906 0.082500
0.627757 0.611210 0.082500
0.567372 0.611370 0.082500
0.517409 0.604755 0.082500
0.472933 0.592076 0.082500
0.430774 0.577882 0.082500
0.388630 0.567372 0.082500
0.343766 0.577503 0.082500
0.308493 0.600915 0.082500
0.281051 0.648282 0.082500
0.256923 0.696143 0.082500
0.275199 0.809589 0.082500
0.282823 0.900527 0.082500
0.516865 0.939119 0.082500
1.000000 0.980568 0.082500
0.000000 0.011556 0.082500
0.638450 0.053654 0.082500
0.785055 0.127957 0.082500
0.810707 0.321153 0.082500
0.780725 0.420362 0.082500
0.739972 0.517750 0.082500
0.694834 0.554569 0.082500
0.632777 0.572844 0.082500
0.577882 0.569226 0.082500
0.528254 0.560528 0.082500
0.482749 0.543869 0.082500
0.439472 0.528254 0.082500
0.395245 0.517409 0.082500
0.347906 0.523283 0.082500
0.303236 0.543757 0.082500
0.266252 0.597308 0.082500
0.234795 0.653799 0.082500
0.247987 0.773944 0.082500
0.246399 0.895580 0.082500
0.459718 0.940763 0.082500
1.000000 0.983985 0.082500
0.000000 0.013133 0.082500
0.594768 0.056978 0.082500
0.774883 0.118200 0.082500
0.781333 0.280514 0.082500
0.779159 0.380188 0.082500
0.734359 0.464004 0.082500
0.692796 0.510569 0.082500
0.641124 0.528493 0.082500
0.592076 0.527067 0.082500
0.543869 0.517251 0.082500
0.500000 0.500000 0.082500
0.456131 0.482749 0.082500
0.407924 0.472933 0.082500
0.358876 0.471507 0.082500
0.307204 0.489431 0.082500
0.265641 0.535996 0.082500
0.220841 0.619812 0.082500
0.218667 0.719486 0.082500
0.225117 0.881800 0.082500
0.405232 0.943022 0.082500
1.000000 0.986867 0.082500
0.000000 0.016015 0.082500
0.540282 0.059237 0.082500
0.753601 0.104420 0.082500
0.752013 0.226056 0.082500
0.765205 0.346201 0.082500
0.733748 0.402692 0.082500
0.696764 0.456243 0.082500
0.652094 0.476717 0.082500
0.604755 0.482591 0.082500
0.560528 0.471746 0.082500
0.517251 0.456131 0.082500
0.471746 0.439472 0.082500
0.422118 0.430774 0.082500
0.367223 0.427156 0.082500
0.305166 0.445431 0.082500
0.260028 0.482250 0.082500
0.219275 0.579638 0.082500
0.189293 0.678847 0.082500
0.214945 0.872043 0.082500
0.361550 0.946346 0.082500
1.000000 0.988444 0.082500
0.000000 0.019432 0.082500
0.483135 0.060881 0.082500
0.717177 0.099473 0.082500
0.724801 0.190411 0.082500
0.743077 0.303857 0.082500
0.718949 0.351718 0.082500
0.691507 0.399085 0.082500
0.656234 0.422497 0.082500
0.611370 0.432628 0.082500
0.569226 0.422118 0.082500
0.527067 0.407924 0.082500
0.482591 0.395245 0.082500
0.432628 0.388630 0.082500
0.372243 0.388790 0.082500
0.306953 0.405094 0.082500
0.254112 0.437424 0.082500
0.209866 0.548978 0.082500
0.173492 0.675679 0.082500
0.201740 0.873622 0.082500
0.336459 0.950996 0.082500
1.000000 0.989059 0.082500
0.000000 0.023765 0.082500
0.407934 0.060693 0.082500
0.654655 0.092940 0.082500
0.689809 0.153580 0.082500
0.711348 0.244074 0.082500
0.697960 0.292622 0.082500
0.675391 0.337575 0.082500
0.644743 0.359896 0.082500
0.611210 0.372243 0.082500
0.572844 0.367223 0.082500
0.528493 0.358876 0.082500
0.476717 0.347906 0.082500
0.422497 0.343766 0.082500
0.359896 0.355257 0.082500
0.290734 0.368785 0.082500
0.236765 0.411827 0.082500
0.202014 0.526365 0.082500
0.157996 0.670902 0.082500
0.188092 0.871876 0.082500
0.309389 0.955263 0.082500
1.000000 0.989585 0.082500
0.000000 0.029216 0.082500
0.330861 0.060525 0.082500
0.568156 0.091507 0.082500
0.640022 0.130731 0.082500