# vtk DataFile Version 2.0
Mesh for Fierro
ASCII 
DATASET UNSTRUCTURED_GRID

POINTS 2205 float
0.000000 0.000000 0.000000
0.054848 0.000000 0.000000
0.109659 0.000000 0.000000
0.164093 0.000000 0.000000
0.218887 0.000000 0.000000
0.271771 0.000000 0.000000
0.324884 0.000000 0.000000
0.377137 0.000000 0.000000
0.429180 0.000000 0.000000
0.479747 0.000000 0.000000
0.529900 0.000000 0.000000
0.579342 0.000000 0.000000
0.627687 0.000000 0.000000
0.676294 0.000000 0.000000
0.723624 0.000000 0.000000
0.770716 0.000000 0.000000
0.816359 0.000000 0.000000
0.863209 0.000000 0.000000
0.908878 0.000000 0.000000
0.954572 0.000000 0.000000
1.000000 0.000000 0.000000
0.000000 0.045428 0.000000
0.054792 0.045486 0.000000
0.109543 0.045658 0.000000
0.163933 0.045941 0.000000
0.218650 0.046328 0.000000
0.271516 0.046808 0.000000
0.324573 0.047372 0.000000
0.376804 0.048005 0.000000
0.428811 0.048694 0.000000
0.479378 0.049413 0.000000
0.529534 0.050148 0.000000
0.578982 0.050878 0.000000
0.627343 0.051597 0.000000
0.675967 0.052279 0.000000
0.723328 0.052910 0.000000
0.770456 0.053469 0.000000
0.816141 0.053951 0.000000
0.863043 0.054337 0.000000
0.908764 0.054618 0.000000
0.954514 0.054792 0.000000
1.000000 0.054848 0.000000
0.000000 0.091122 0.000000
0.054618 0.091236 0.000000
0.109205 0.091578 0.000000
0.163426 0.092136 0.000000
0.218023 0.092903 0.000000
0.270731 0.093847 0.000000
0.323693 0.094950 0.000000
0.375826 0.096184 0.000000
0.427787 0.097524 0.000000
0.478298 0.098931 0.000000
0.528435 0.100369 0.000000
0.577895 0.101819 0.000000
0.626295 0.103231 0.000000
0.674983 0.104582 0.000000
0.722432 0.105829 0.000000
0.769678 0.106937 0.000000
0.815491 0.107885 0.000000
0.862543 0.108643 0.000000
0.908422 0.109205 0.000000
0.954342 0.109543 0.000000
1.000000 0.109659 0.000000
0.000000 0.136791 0.000000
0.054337 0.136957 0.000000
0.108643 0.137457 0.000000
0.162614 0.138274 0.000000
0.216933 0.139396 0.000000
0.269460 0.140789 0.000000
0.322215 0.142425 0.000000
0.374214 0.144267 0.000000
0.426054 0.146267 0.000000
0.476517 0.148355 0.000000
0.526639 0.150486 0.000000
0.576123 0.152596 0.000000
0.624588 0.154676 0.000000
0.673377 0.156650 0.000000
0.720974 0.158475 0.000000
0.768404 0.160095 0.000000
0.814427 0.161490 0.000000
0.861726 0.162614 0.000000
0.907864 0.163426 0.000000
0.954059 0.163933 0.000000
1.000000 0.164093 0.000000
0.000000 0.183641 0.000000
0.053951 0.183859 0.000000
0.107885 0.184509 0.000000
0.161490 0.185573 0.000000
0.215504 0.187032 0.000000
0.267711 0.188826 0.000000
0.320227 0.190915 0.000000
0.372016 0.193245 0.000000
0.423741 0.195778 0.000000
0.474089 0.198441 0.000000
0.524179 0.201160 0.000000
0.573692 0.203944 0.000000
0.622245 0.206625 0.000000
0.671175 0.209213 0.000000
0.718970 0.211590 0.000000
0.766656 0.213713 0.000000
0.812968 0.215504 0.000000
0.860604 0.216933 0.000000
0.907097 0.218023 0.000000
0.953672 0.218650 0.000000
1.000000 0.218887 0.000000
0.000000 0.229284 0.000000
0.053469 0.229544 0.000000
0.106937 0.230322 0.000000
0.160095 0.231596 0.000000
0.213713 0.233344 0.000000
0.265542 0.235505 0.000000
0.317760 0.238045 0.000000
0.369299 0.240897 0.000000
0.420870 0.243997 0.000000
0.471091 0.247238 0.000000
0.521144 0.250560 0.000000
0.570695 0.253862 0.000000
0.619358 0.257096 0.000000
0.668458 0.260175 0.000000
0.716502 0.263015 0.000000
0.764495 0.265542 0.000000
0.811174 0.267711 0.000000
0.859211 0.269460 0.000000
0.906153 0.270731 0.000000
0.953192 0.271516 0.000000
1.000000 0.271771 0.000000
0.000000 0.276376 0.000000
0.052910 0.276672 0.000000
0.105829 0.277568 0.000000
0.158475 0.279026 0.000000
0.211590 0.281030 0.000000
0.263015 0.283498 0.000000
0.314855 0.286391 0.000000
0.366108 0.289631 0.000000
0.417461 0.293148 0.000000
0.467557 0.296834 0.000000
0.517572 0.300607 0.000000
0.567168 0.304396 0.000000
0.615963 0.308079 0.000000
0.665266 0.311609 0.000000
0.713609 0.314855 0.000000
0.761955 0.317760 0.000000
0.809085 0.320227 0.000000
0.857575 0.322215 0.000000
0.905050 0.323693 0.000000
0.952628 0.324573 0.000000
1.000000 0.324884 0.000000
0.000000 0.323706 0.000000
0.052279 0.324033 0.000000
0.104582 0.325017 0.000000
0.156650 0.326623 0.000000
0.209213 0.328825 0.000000
0.260175 0.331542 0.000000
0.311609 0.334734 0.000000
0.362538 0.338311 0.000000
0.413663 0.342195 0.000000
0.463609 0.346259 0.000000
0.513574 0.350430 0.000000
0.563218 0.354594 0.000000
0.612159 0.358656 0.000000
0.661689 0.362538 0.000000
0.710369 0.366108 0.000000
0.759103 0.369299 0.000000
0.806755 0.372016 0.000000
0.855733 0.374214 0.000000
0.903816 0.375826 0.000000
0.951995 0.376804 0.000000
1.000000 0.377137 0.000000
0.000000 0.372313 0.000000
0.051597 0.372657 0.000000
0.103231 0.373705 0.000000
0.154676 0.375412 0.000000
0.206625 0.377755 0.000000
0.257096 0.380642 0.000000
0.308079 0.384037 0.000000
0.358656 0.387841 0.000000
0.409527 0.391975 0.000000
0.459309 0.396309 0.000000
0.509228 0.400750 0.000000
0.558925 0.405207 0.000000
0.608025 0.409527 0.000000
0.657805 0.413663 0.000000
0.706852 0.417461 0.000000
0.756003 0.420870 0.000000
0.804222 0.423741 0.000000
0.853733 0.426054 0.000000
0.902476 0.427787 0.000000
0.951306 0.428811 0.000000
1.000000 0.429180 0.000000
0.000000 0.420658 0.000000
0.050878 0.421018 0.000000
0.101819 0.422105 0.000000
0.152596 0.423877 0.000000
0.203944 0.426308 0.000000
0.253862 0.429305 0.000000
0.304396 0.432832 0.000000
0.354594 0.436782 0.000000
0.405207 0.441075 0.000000
0.454812 0.445571 0.000000
0.504676 0.450192 0.000000
0.554429 0.454812 0.000000
0.603691 0.459309 0.000000
0.653741 0.463609 0.000000
0.703166 0.467557 0.000000
0.752762 0.471091 0.000000
0.801559 0.474089 0.000000
0.851645 0.476517 0.000000
0.901069 0.478298 0.000000
0.950587 0.479378 0.000000
1.000000 0.479747 0.000000
0.000000 0.470100 0.000000
0.050148 0.470466 0.000000
0.100369 0.471565 0.000000
0.150486 0.473361 0.000000
0.201160 0.475821 0.000000
0.250560 0.478856 0.000000
0.300607 0.482428 0.000000
0.350430 0.486426 0.000000
0.400750 0.490772 0.000000
0.450192 0.495324 0.000000
0.500000 0.500000 0.000000
0.549808 0.504676 0.000000
0.599250 0.509228 0.000000
0.649570 0.513574 0.000000
0.699393 0.517572 0.000000
0.749440 0.521144 0.000000
0.798840 0.524179 0.000000
0.849514 0.526639 0.000000
0.899631 0.528435 0.000000
0.949852 0.529534 0.000000
1.000000 0.529900 0.000000
0.000000 0.520253 0.000000
0.049413 0.520622 0.000000
0.098931 0.521702 0.000000
0.148355 0.523483 0.000000
0.198441 0.525911 0.000000
0.247238 0.528909 0.000000
0.296834 0.532443 0.000000
0.346259 0.536391 0.000000
0.396309 0.540691 0.000000
0.445571 0.545188 0.000000
0.495324 0.549808 0.000000
0.545188 0.554429 0.000000
0.594793 0.558925 0.000000
0.645406 0.563218 0.000000
0.695604 0.567168 0.000000
0.746138 0.570695 0.000000
0.796056 0.573692 0.000000
0.847404 0.576123 0.000000
0.898181 0.577895 0.000000
0.949122 0.578982 0.000000
1.000000 0.579342 0.000000
0.000000 0.570820 0.000000
0.048694 0.571189 0.000000
0.097524 0.572213 0.000000
0.146267 0.573946 0.000000
0.195778 0.576259 0.000000
0.243997 0.579130 0.000000
0.293148 0.582539 0.000000
0.342195 0.586337 0.000000
0.391975 0.590473 0.000000
0.441075 0.594793 0.000000
0.490772 0.599250 0.000000
0.540691 0.603691 0.000000
0.590473 0.608025 0.000000
0.641344 0.612159 0.000000
0.691921 0.615963 0.000000
0.742904 0.619358 0.000000
0.793375 0.622245 0.000000
0.845324 0.624588 0.000000
0.896769 0.626295 0.000000
0.948403 0.627343 0.000000
1.000000 0.627687 0.000000
0.000000 0.622863 0.000000
0.048005 0.623196 0.000000
0.096184 0.624174 0.000000
0.144267 0.625786 0.000000
0.193245 0.627984 0.000000
0.240897 0.630701 0.000000
0.289631 0.633892 0.000000
0.338311 0.637462 0.000000
0.387841 0.641344 0.000000
0.436782 0.645406 0.000000
0.486426 0.649570 0.000000
0.536391 0.653741 0.000000
0.586337 0.657805 0.000000
0.637462 0.661689 0.000000
0.688391 0.665266 0.000000
0.739825 0.668458 0.000000
0.790787 0.671175 0.000000
0.843350 0.673377 0.000000
0.895418 0.674983 0.000000
0.947721 0.675967 0.000000
1.000000 0.676294 0.000000
0.000000 0.675116 0.000000
0.047372 0.675427 0.000000
0.094950 0.676307 0.000000
0.142425 0.677785 0.000000
0.190915 0.679773 0.000000
0.238045 0.682240 0.000000
0.286391 0.685145 0.000000
0.334734 0.688391 0.000000
0.384037 0.691921 0.000000
0.432832 0.695604 0.000000
0.482428 0.699393 0.000000
0.532443 0.703166 0.000000
0.582539 0.706852 0.000000
0.633892 0.710369 0.000000
0.685145 0.713609 0.000000
0.736985 0.716502 0.000000
0.788410 0.718970 0.000000
0.841525 0.720974 0.000000
0.894171 0.722432 0.000000
0.947090 0.723328 0.000000
1.000000 0.723624 0.000000
0.000000 0.728229 0.000000
0.046808 0.728484 0.000000
0.093847 0.729269 0.000000
0.140789 0.730540 0.000000
0.188826 0.732289 0.000000
0.235505 0.734458 0.000000
0.283498 0.736985 0.000000
0.331542 0.739825 0.000000
0.380642 0.742904 0.000000
0.429305 0.746138 0.000000
0.478856 0.749440 0.000000
0.528909 0.752762 0.000000
0.579130 0.756003 0.000000
0.630701 0.759103 0.000000
0.682240 0.761955 0.000000
0.734458 0.764495 0.000000
0.786287 0.766656 0.000000
0.839905 0.768404 0.000000
0.893063 0.769678 0.000000
0.946531 0.770456 0.000000
1.000000 0.770716 0.000000
0.000000 0.781113 0.000000
0.046328 0.781350 0.000000
0.092903 0.781977 0.000000
0.139396 0.783067 0.000000
0.187032 0.784496 0.000000
0.233344 0.786287 0.000000
0.281030 0.788410 0.000000
0.328825 0.790787 0.000000
0.377755 0.793375 0.000000
0.426308 0.796056 0.000000
0.475821 0.798840 0.000000
0.525911 0.801559 0.000000
0.576259 0.804222 0.000000
0.627984 0.806755 0.000000
0.679773 0.809085 0.000000
0.732289 0.811174 0.000000
0.784496 0.812968 0.000000
0.838510 0.814427 0.000000
0.892115 0.815491 0.000000
0.946049 0.816141 0.000000
1.000000 0.816359 0.000000
0.000000 0.835907 0.000000
0.045941 0.836067 0.000000
0.092136 0.836574 0.000000
0.138274 0.837386 0.000000
0.185573 0.838510 0.000000
0.231596 0.839905 0.000000
0.279026 0.841525 0.000000
0.326623 0.843350 0.000000
0.375412 0.845324 0.000000
[...]
POINT_DATA 2205 
VECTORS pos float 
0.000000 0.000000 0.000000
0.054848 0.000000 0.000000
0.109659 0.000000 0.000000
0.164093 0.000000 0.000000
0.218887 0.000000 0.000000
0.271771 0.000000 0.000000
0.324884 0.000000 0.000000
0.377137 0.000000 0.000000
0.429180 0.000000 0.000000
0.479747 0.000000 0.000000
0.529900 0.000000 0.000000
0.579342 0.000000 0.000000
0.627687 0.000000 0.000000
0.676294 0.000000 0.000000
0.723624 0.000000 0.000000
0.770716 0.000000 0.000000
0.816359 0.000000 0.000000
0.863209 0.000000 0.000000
0.908878 0.000000 0.000000
0.954572 0.000000 0.000000
1.000000 0.000000 0.000000
0.000000 0.045428 0.000000
0.054792 0.045486 0.000000
0.109543 0.045658 0.000000
0.163933 0.045941 0.000000
0.218650 0.046328 0.000000
0.271516 0.046808 0.000000
0.324573 0.047372 0.000000
0.376804 0.048005 0.000000
0.428811 0.048694 0.000000
0.479378 0.049413 0.000000
0.529534 0.050148 0.000000
0.578982 0.050878 0.000000
0.627343 0.051597 0.000000
0.675967 0.052279 0.000000
0.723328 0.052910 0.000000
0.770456 0.053469 0.000000
0.816141 0.053951 0.000000
0.863043 0.054337 0.000000
0.908764 0.054618 0.000000
0.954514 0.054792 0.000000
1.000000 0.054848 0.000000
0.000000 0.091122 0.000000
0.054618 0.091236 0.000000
0.109205 0.091578 0.000000
0.163426 0.092136 0.000000
0.218023 0.092903 0.000000
0.270731 0.093847 0.000000
0.323693 0.094950 0.000000
0.375826 0.096184 0.000000
0.427787 0.097524 0.000000
0.478298 0.098931 0.000000
0.528435 0.100369 0.000000
0.577895 0.101819 0.000000
0.626295 0.103231 0.000000
0.674983 0.104582 0.000000
0.722432 0.105829 0.000000
0.769678 0.106937 0.000000
0.815491 0.107885 0.000000
0.862543 0.108643 0.000000
0.908422 0.109205 0.000000
0.954342 0.109543 0.000000
1.000000 0.109659 0.000000
0.000000 0.136791 0.000000
0.054337 0.136957 0.000000
0.108643 0.137457 0.000000
0.162614 0.138274 0.000000
0.216933 0.139396 0.000000
0.269460 0.140789 0.000000
0.322215 0.142425 0.000000
0.374214 0.144267 0.000000
0.426054 0.146267 0.000000
0.476517 0.148355 0.000000
0.526639 0.150486 0.000000
0.576123 0.152596 0.000000
0.624588 0.154676 0.000000
0.673377 0.156650 0.000000
0.720974 0.158475 0.000000
0.768404 0.160095 0.000000
0.814427 0.161490 0.000000
0.861726 0.162614 0.000000
0.907864 0.163426 0.000000
0.954059 0.163933 0.000000
1.000000 0.164093 0.000000
0.000000 0.183641 0.000000
0.053951 0.183859 0.000000
0.107885 0.184509 0.000000
0.161490 0.185573 0.000000
0.215504 0.187032 0.000000
0.267711 0.188826 0.000000
0.320227 0.190915 0.000000
0.372016 0.193245 0.000000
0.423741 0.195778 0.000000
0.474089 0.198441 0.000000
0.524179 0.201160 0.000000
0.573692 0.203944 0.000000
0.622245 0.206625 0.000000
0.671175 0.209213 0.000000
0.718970 0.211590 0.000000
0.766656 0.213713 0.000000
0.812968 0.215504 0.000000
0.860604 0.216933 0.000000
0.907097 0.218023 0.000000
0.953672 0.218650 0.000000
1.000000 0.218887 0.000000
0.000000 0.229284 0.000000
0.053469 0.229544 0.000000
0.106937 0.230322 0.000000
0.160095 0.231596 0.000000
0.213713 0.233344 0.000000
0.265542 0.235505 0.000000
0.317760 0.238045 0.000000
0.369299 0.240897 0.000000
0.420870 0.243997 0.000000
0.471091 0.247238 0.000000
0.521144 0.250560 0.000000
0.570695 0.253862 0.000000
0.619358 0.257096 0.000000
0.668458 0.260175 0.000000
0.716502 0.263015 0.000000
0.764495 0.265542 0.000000
0.811174 0.267711 0.000000
0.859211 0.269460 0.000000
0.906153 0.270731 0.000000
0.953192 0.271516 0.000000
1.000000 0.271771 0.000000
0.000000 0.276376 0.000000
0.052910 0.276672 0.000000
0.105829 0.277568 0.000000
0.158475 0.279026 0.000000
0.211590 0.281030 0.000000
0.263015 0.283498 0.000000
0.314855 0.286391 0.000000
0.366108 0.289631 0.000000
0.417461 0.293148 0.000000
0.467557 0.296834 0.000000
0.517572 0.300607 0.000000
0.567168 0.304396 0.000000
0.615963 0.308079 0.000000
0.665266 0.311609 0.000000
0.713609 0.314855 0.000000
0.761955 0.317760 0.000000
0.809085 0.320227 0.000000
0.857575 0.322215 0.000000
0.905050 0.323693 0.000000
0.952628 0.324573 0.000000
1.000000 0.324884 0.000000
0.000000 0.323706 0.000000
0.052279 0.324033 0.000000
0.104582 0.325017 0.000000
0.156650 0.326623 0.000000
0.209213 0.328825 0.000000
0.260175 0.331542 0.000000
0.311609 0.334734 0.000000
0.362538 0.338311 0.000000
0.413663 0.342195 0.000000
0.463609 0.346259 0.000000
0.513574 0.350430 0.000000
0.563218 0.354594 0.000000
0.612159 0.358656 0.000000
0.661689 0.362538 0.000000
0.710369 0.366108 0.000000
0.759103 0.369299 0.000000
0.806755 0.372016 0.000000
0.855733 0.374214 0.000000
0.903816 0.375826 0.000000
0.951995 0.376804 0.000000
1.000000 0.377137 0.000000
0.000000 0.372313 0.000000
0.051597 0.372657 0.000000
0.103231 0.373705 0.000000
0.154676 0.375412 0.000000
0.206625 0.377755 0.000000
0.257096 0.380642 0.000000
0.308079 0.384037 0.000000
0.358656 0.387841 0.000000
0.409527 0.391975 0.000000
0.459309 0.396309 0.000000
0.509228 0.400750 0.000000
0.558925 0.405207 0.000000
0.608025 0.409527 0.000000
0.657805 0.413663 0.000000
0.706852 0.417461 0.000000
0.756003 0.420870 0.000000
0.804222 0.423741 0.000000
0.853733 0.426054 0.000000
0.902476 0.427787 0.000000
0.951306 0.428811 0.000000
1.000000 0.429180 0.000000
0.000000 0.420658 0.000000
0.050878 0.421018 0.000000
0.101819 0.422105 0.000000
0.152596 0.423877 0.000000
0.203944 0.426308 0.000000
0.253862 0.429305 0.000000
0.304396 0.432832 0.000000
0.354594 0.436782 0.000000
0.405207 0.441075 0.000000
0.454812 0.445571 0.000000
0.504676 0.450192 0.000000
0.554429 0.454812 0.000000
0.603691 0.459309 0.000000
0.653741 0.463609 0.000000
0.703166 0.467557 0.000000
0.752762 0.471091 0.000000
0.801559 0.474089 0.000000
0.851645 0.476517 0.000000
0.901069 0.478298 0.000000
0.950587 0.479378 0.000000
1.000000 0.479747 0.000000
0.000000 0.470100 0.000000
0.050148 0.470466 0.000000
0.100369 0.471565 0.000000
0.150486 0.473361 0.000000
0.201160 0.475821 0.000000
0.250560 0.478856 0.000000
0.300607 0.482428 0.000000
0.350430 0.486426 0.000000
0.400750 0.490772 0.000000
0.450192 0.495324 0.000000
0.500000 0.500000 0.000000
0.549808 0.504676 0.000000
0.599250 0.509228 0.000000
0.649570 0.513574 0.000000
0.699393 0.517572 0.000000
0.749440 0.521144 0.000000
0.798840 0.524179 0.000000
0.849514 0.526639 0.000000
0.899631 0.528435 0.000000
0.949852 0.529534 0.000000
1.000000 0.529900 0.000000
0.000000 0.520253 0.000000
0.049413 0.520622 0.000000
0.098931 0.521702 0.000000
0.148355 0.523483 0.000000
0.198441 0.525911 0.000000
0.247238 0.528909 0.000000
0.296834 0.532443 0.000000
0.346259 0.536391 0.000000
0.396309 0.540691 0.000000
0.445571 0.545188 0.000000
0.495324 0.549808 0.000000
0.545188 0.554429 0.000000
0.594793 0.558925 0.000000
0.645406 0.563218 0.000000
0.695604 0.567168 0.000000
0.746138 0.570695 0.000000
0.796056 0.573692 0.000000
0.847404 0.576123 0.000000
0.898181 0.577895 0.000000
0.949122 0.578982 0.000000
1.000000 0.579342 0.000000
0.000000 0.570820 0.000000
0.048694 0.571189 0.000000
0.097524 0.572213 0.000000
0.146267 0.573946 0.000000
0.195778 0.576259 0.000000
0.243997 0.579130 0.000000
0.293148 0.582539 0.000000
0.342195 0.586337 0.000000
0.391975 0.590473 0.000000
0.441075 0.594793 0.000000
0.490772 0.599250 0.000000
0.540691 0.603691 0.000000
0.590473 0.608025 0.000000
0.641344 0.612159 0.000000
0.691921 0.615963 0.000000
0.742904 0.619358 0.000000
0.793375 0.622245 0.000000
0.845324 0.624588 0.000000
0.896769 0.626295 0.000000
0.948403 0.627343 0.000000
1.000000 0.627687 0.000000
0.000000 0.622863 0.000000
0.048005 0.623196 0.000000
0.096184 0.624174 0.000000
0.144267 0.625786 0.000000
0.193245 0.627984 0.000000
0.240897 0.630701 0.000000
0.289631 0.633892 0.000000
0.338311 0.637462 0.000000
0.387841 0.641344 0.000000
0.436782 0.645406 0.000000
0.486426 0.649570 0.000000
0.536391 0.653741 0.000000
0.586337 0.657805 0.000000
0.637462 0.661689 0.000000
0.688391 0.665266 0.000000
0.739825 0.668458 0.000000
0.790787 0.671175 0.000000
0.843350 0.673377 0.000000
0.895418 0.674983 0.000000
0.947721 0.675967 0.000000
1.000000 0.676294 0.000000
0.000000 0.675116 0.000000
0.047372 0.675427 0.000000
0.094950 0.676307 0.000000
0.142425 0.677785 0.000000
0.190915 0.679773 0.000000
0.238045 0.682240 0.000000
0.286391 0.685145 0.000000
0.334734 0.688391 0.000000
0.384037 0.691921 0.000000
0.432832 0.695604 0.000000
0.482428 0.699393 0.000000
0.532443 0.703166 0.000000
0.582539 0.706852 0.000000
0.633892 0.710369 0.000000
0.685145 0.713609 0.000000
0.736985 0.716502 0.000000
0.788410 0.718970 0.000000
0.841525 0.720974 0.000000
0.894171 0.722432 0.000000
0.947090 0.723328 0.000000
1.000000 0.723624 0.000000
0.000000 0.728229 0.000000
0.046808 0.728484 0.000000
0.093847 0.729269 0.000000
0.140789 0.730540 0.000000
0.188826 0.732289 0.000000
0.235505 0.734458 0.000000
0.283498 0.736985 0.000000
0.331542 0.739825 0.000000
0.380642 0.742904 0.000000
0.429305 0.746138 0.000000
0.478856 0.749440 0.000000
0.528909 0.752762 0.000000
0.579130 0.756003 0.000000
0.630701 0.759103 0.000000
0.682240 0.761955 0.000000
0.734458 0.764495 0.000000
0.786287 0.766656 0.000000
0.839905 0.768404 0.000000
0.893063 0.769678 0.000000
0.946531 0.770456 0.000000
1.000000 0.770716 0.000000
0.000000 0.781113 0.000000
0.046328 0.781350 0.000000
0.092903 0.781977 0.000000
0.139396 0.783067 0.000000
0.187032 0.784496 0.000000
0.233344 0.786287 0.000000
0.281030 0.788410 0.000000
0.328825 0.790787 0.000000
0.377755 0.793375 0.000000
0.426308 0.796056 0.000000
0.475821 0.798840 0.000000
0.525911 0.801559 0.000000
0.576259 0.804222 0.000000
0.627984 0.806755 0.000000
0.679773 0.809085 0.000000
0.732289 0.811174 0.000000
0.784496 0.812968 0.000000
0.838510 0.814427 0.000000
0.892115 0.815491 0.000000
0.946049 0.816141 0.000000
1.000000 0.816359 0.000000
0.000000 0.835907 0.000000
0.045941 0.836067 0.000000
0.092136 0.836574 0.000000
0.138274 0.837386 0.000000
0.185573 0.838510 0.000000
0.231596 0.839905 0.000000
0.279026 0.841525 0.000000
0.326623 0.843350 0.000000
0.375412 0.845324 0.000000
0.423877 0.847404 0.000000
0.473361 0.849514 0.000000
0.523483 0.851645 0.000000
0.573946 0.853733 0.000000
0.625786 0.855733 0.000000
0.677785 0.857575 0.000000
0.730540 0.859211 0.000000
0.783067 0.860604 0.000000
0.837386 0.861726 0.000000
0.891357 0.862543 0.000000
0.945663 0.863043 0.000000
1.000000 0.863209 0.000000
0.000000 0.890341 0.000000
0.045658 0.890457 0.000000
0.091578 0.890795 0.000000
0.137457 0.891357 0.000000
0.184509 0.892115 0.000000
0.230322 0.893063 0.000000
0.277568 0.894171 0.000000
0.325017 0.895418 0.000000
0.373705 0.896769 0.000000
0.422105 0.898181 0.000000
0.471565 0.899631 0.000000
0.521702 0.901069 0.000000
0.572213 0.902476 0.000000
0.624174 0.903816 0.000000
0.676307 0.905050 0.000000
0.729269 0.906153 0.000000
0.781977 0.907097 0.000000
0.836574 0.907864 0.000000
0.890795 0.908422 0.000000
0.945382 0.908764 0.000000
1.000000 0.908878 0.000000
0.000000 0.945152 0.000000
0.045486 0.945208 0.000000
0.091236 0.945382 0.000000
0.136957 0.945663 0.000000
0.183859 0.946049 0.000000
0.229544 0.946531 0.000000
0.276672 0.947090 0.000000
0.324033 0.947721 0.000000
0.372657 0.948403 0.000000
0.421018 0.949122 0.000000
0.470466 0.949852 0.000000
0.520622 0.950587 0.000000
0.571189 0.951306 0.000000
0.623196 0.951995 0.000000
0.675427 0.952628 0.000000
0.728484 0.953192 0.000000
0.781350 0.953672 0.000000
0.836067 0.954059 0.000000
0.890457 0.954342 0.000000
0.945208 0.954514 0.000000
1.000000 0.954572 0.000000
0.000000 1.000000 0.000000
0.045428 1.000000 0.000000
0.091122 1.000000 0.000000
0.136791 1.000000 0.000000
0.183641 1.000000 0.000000
0.229284 1.000000 0.000000
0.276376 1.000000 0.000000
0.323706 1.000000 0.000000
0.372313 1.000000 0.000000
0.420658 1.000000 0.000000
0.470100 1.000000 0.000000
0.520253 1.000000 0.000000
0.570820 1.000000 0.000000
0.622863 1.000000 0.000000
0.675116 1.000000 0.000000
0.728229 1.000000 0.000000
0.781113 1.000000 0.000000
0.835907 1.000000 0.000000
0.890341 1.000000 0.000000
0.945152 1.000000 0.000000
1.000000 1.000000 0.000000
0.000000 0.000000 0.082500
0.054848 0.000000 0.082500
0.109659 0.000000 0.082500
0.164093 0.000000 0.082500
0.218887 0.000000 0.082500
0.271771 0.000000 0.082500
0.324884 0.000000 0.082500
0.377137 0.000000 0.082500
0.429180 0.000000 0.082500
0.479747 0.000000 0.082500
0.529900 0.000000 0.082500
0.579342 0.000000 0.082500
0.627687 0.000000 0.082500
0.676294 0.000000 0.082500
0.723624 0.000000 0.082500
0.770716 0.000000 0.082500
0.816359 0.000000 0.082500
0.863209 0.000000 0.082500
0.908878 0.000000 0.082500
0.954572 0.000000 0.082500
1.000000 0.000000 0.082500
0.000000 0.045428 0.082500
0.054792 0.045486 0.082500
0.109543 0.045658 0.082500
0.163933 0.045941 0.082500
0.218650 0.046328 0.082500
0.271516 0.046808 0.082500
0.324573 0.047372 0.082500
0.376804 0.048005 0.082500
0.428811 0.048694 0.082500
0.479378 0.049413 0.082500
0.529534 0.050148 0.082500
0.578982 0.050878 0.082500
0.627343 0.051597 0.082500
0.675967 0.052279 0.082500
0.723328 0.052910 0.082500
0.770456 0.053469 0.082500
0.816141 0.053951 0.082500
0.863043 0.054337 0.082500
0.908764 0.054618 0.082500
0.954514 0.054792 0.082500
1.000000 0.054848 0.082500
0.000000 0.091122 0.082500
0.054618 0.091236 0.082500
0.109205 0.091578 0.082500
0.163426 0.092136 0.082500
0.218023 0.092903 0.082500
0.270731 0.093847 0.082500
0.323693 0.094950 0.082500
0.375826 0.096184 0.082500
0.427787 0.097524 0.082500
0.478298 0.098931 0.082500
0.528435 0.100369 0.082500
0.577895 0.101819 0.082500
0.626295 0.103231 0.082500
0.674983 0.104582 0.082500
0.722432 0.105829 0.082500
0.769678 0.106937 0.082500
0.815491 0.107885 0.082500
0.862543 0.108643 0.082500
0.908422 0.109205 0.082500
0.954342 0.109543 0.082500
1.000000 0.109659 0.082500
0.000000 0.136791 0.082500
0.054337 0.136957 0.082500
0.108643 0.137457 0.082500
0.162614 0.138274 0.082500
0.216933 0.139396 0.082500
0.269460 0.140789 0.082500
0.322215 0.142425 0.082500
0.374214 0.144267 0.082500
0.426054 0.146267 0.082500
0.476517 0.148355 0.082500
0.526639 0.150486 0.082500
0.576123 0.152596 0.082500
0.624588 0.154676 0.082500
0.673377 0.156650 0.082500
0.720974 0.158475 0.082500
0.768404 0.160095 0.082500
0.814427 0.161490 0.082500
0.861726 0.162614 0.082500
0.907864 0.163426 0.082500
0.954059 0.163933 0.082500
1.000000 0.164093 0.082500
0.000000 0.183641 0.082500
0.053951 0.183859 0.082500
0.107885 0.184509 0.082500
0.161490 0.185573 0.082500
0.215504 0.187032 0.082500
0.267711 0.188826 0.082500
0.320227 0.190915 0.082500
0.372016 0.193245 0.082500
0.423741 0.195778 0.082500
0.474089 0.198441 0.082500
0.524179 0.201160 0.082500
0.573692 0.203944 0.082500
0.622245 0.206625 0.082500
0.671175 0.209213 0.082500
0.718970 0.211590 0.082500
0.766656 0.213713 0.082500
0.812968 0.215504 0.082500
0.860604 0.216933 0.082500
0.907097 0.218023 0.082500
0.953672 0.218650 0.082500
1.000000 0.218887 0.082500
0.000000 0.229284 0.082500
0.053469 0.229544 0.082500
0.106937 0.230322 0.082500
0.160095 0.231596 0.082500
0.213713 0.233344 0.082500
0.265542 0.235505 0.082500
0.317760 0.238045 0.082500
0.369299 0.240897 0.082500
0.420870 0.243997 0.082500
0.471091 0.247238 0.082500
0.521144 0.250560 0.082500
0.570695 0.253862 0.082500
0.619358 0.257096 0.082500
0.668458 0.260175 0.082500
0.716502 0.263015 0.082500
0.764495 0.265542 0.082500
0.811174 0.267711 0.082500
0.859211 0.269460 0.082500
0.906153 0.270731 0.082500
0.953192 0.271516 0.082500
1.000000 0.271771 0.082500
0.000000 0.276376 0.082500
0.052910 0.276672 0.082500
0.105829 0.277568 0.082500
0.158475 0.279026 0.082500
0.211590 0.281030 0.082500
0.263015 0.283498 0.082500
0.314855 0.286391 0.082500
0.366108 0.289631 0.082500
0.417461 0.293148 0.082500
0.467557 0.296834 0.082500
0.517572 0.300607 0.082500
0.567168 0.304396 0.082500
0.615963 0.308079 0.082500
0.665266 0.311609 0.082500
0.713609 0.314855 0.082500
0.761955 0.317760 0.082500
0.809085 0.320227 0.082500
0.857575 0.322215 0.082500
0.905050 0.323693 0.082500
0.952628 0.324573 0.082500
1.000000 0.324884 0.082500
0.000000 0.323706 0.082500
0.052279 0.324033 0.082500
0.104582 0.325017 0.082500
0.156650 0.326623 0.082500
0.209213 0.328825 0.082500
0.260175 0.331542 0.082500
0.311609 0.334734 0.082500
0.362538 0.338311 0.082500
0.413663 0.342195 0.082500
0.463609 0.346259 0.082500
0.513574 0.350430 0.082500
0.563218 0.354594 0.082500
0.612159 0.358656 0.082500
0.661689 0.362538 0.082500
0.710369 0.366108 0.082500
0.759103 0.369299 0.082500
0.806755 0.372016 0.082500
0.855733 0.374214 0.082500
0.903816 0.375826 0.082500
0.951995 0.376804 0.082500
1.000000 0.377137 0.082500
0.000000 0.372313 0.082500
0.051597 0.372657 0.082500
0.103231 0.373705 0.082500
0.154676 0.375412 0.082500
0.206625 0.377755 0.082500
0.257096 0.380642 0.082500
0.308079 0.384037 0.082500
0.358656 0.387841 0.082500
0.409527 0.391975 0.082500
0.459309 0.396309 0.082500
0.509228 0.400750 0.082500
0.558925 0.405207 0.082500
0.608025 0.409527 0.082500
0.657805 0.413663 0.082500
0.706852 0.417461 0.082500
0.756003 0.420870 0.082500
0.804222 0.423741 0.082500
0.853733 0.426054 0.082500
0.902476 0.427787 0.082500
0.951306 0.428811 0.082500
1.000000 0.429180 0.082500
0.000000 0.420658 0.082500
0.050878 0.421018 0.082500
0.101819 0.422105 0.082500
0.152596 0.423877 0.082500
0.203944 0.426308 0.082500
0.253862 0.429305 0.082500
0.304396 0.432832 0.082500
0.354594 0.436782 0.082500
0.405207 0.441075 0.082500
0.454812 0.445571 0.082500
0.504676 0.450192 0.082500
0.554429 0.454812 0.082500
0.603691 0.459309 0.082500
0.653741 0.463609 0.082500
0.703166 0.467557 0.082500
0.752762 0.471091 0.082500
0.801559 0.474089 0.082500
0.851645 0.476517 0.082500
0.901069 0.478298 0.082500
0.950587 0.479378 0.082500
1.000000 0.479747 0.082500
0.000000 0.470100 0.082500
0.050148 0.470466 0.082500
0.100369 0.471565 0.082500
0.150486 0.473361 0.082500
0.201160 0.475821 0.082500
0.250560 0.478856 0.082500
0.300607 0.482428 0.082500
0.350430 0.486426 0.082500
0.400750 0.490772 0.082500
0.450192 0.495324 0.082500
0.500000 0.500000 0.082500
0.549808 0.504676 0.082500
0.599250 0.509228 0.082500
0.649570 0.513574 0.082500
0.699393 0.517572 0.082500
0.749440 0.521144 0.082500
0.798840 0.524179 0.082500
0.849514 0.526639 0.082500
0.899631 0.528435 0.082500
0.949852 0.529534 0.082500
1.000000 0.529900 0.082500
0.000000 0.520253 0.082500
0.049413 0.520622 0.082500
0.098931 0.521702 0.082500
0.148355 0.523483 0.082500
0.198441 0.525911 0.082500
0.247238 0.528909 0.082500
0.296834 0.532443 0.082500
0.346259 0.536391 0.082500
0.396309 0.540691 0.082500
0.445571 0.545188 0.082500
0.495324 0.549808 0.082500
0.545188 0.554429 0.082500
0.594793 0.558925 0.082500
0.645406 0.563218 0.082500
0.695604 0.567168 0.082500
0.746138 0.570695 0.082500
0.796056 0.573692 0.082500
0.847404 0.576123 0.082500
0.898181 0.577895 0.082500
0.949122 0.578982 0.082500
1.000000 0.579342 0.082500
0.000000 0.570820 0.082500
0.048694 0.571189 0.082500
0.097524 0.572213 0.082500
0.146267 0.573946 0.082500
0.195778 0.576259 0.082500
0.243997 0.579130 0.082500
0.293148 0.582539 0.082500
0.342195 0.586337 0.082500
0.391975 0.590473 0.082500
0.441075 0.594793 0.082500
0.490772 0.599250 0.082500
0.540691 0.603691 0.082500
0.590473 0.608025 0.082500
0.641344 0.612159 0.082500
0.691921 0.615963 0.082500
0.742904 0.619358 0.082500
0.793375 0.622245 0.082500
0.845324 0.624588 0.082500
0.896769 0.626295 0.082500
0.948403 0.627343 0.082500
1.000000 0.627687 0.082500
0.000000 0.622863 0.082500
0.048005 0.623196 0.082500
0.096184 0.624174 0.082500
0.144267 0.625786 0.082500
0.193245 0.627984 0.082500
0.240897 0.630701 0.082500
0.289631 0.633892 0.082500
0.338311 0.637462 0.082500
0.387841 0.641344 0.082500
0.436782 0.645406 0.082500
0.486426 0.649570 0.082500
0.536391 0.653741 0.082500
0.586337 0.657805 0.082500
0.637462 0.661689 0.082500
0.688391 0.665266 0.082500
0.739825 0.668458 0.082500
0.790787 0.671175 0.082500
0.843350 0.673377 0.082500
0.895418 0.674983 0.082500
0.947721 0.675967 0.082500
1.000000 0.676294 0.082500
0.000000 0.675116 0.082500
0.047372 0.675427 0.082500
0.094950 0.676307 0.082500
0.142425 0.677785 0.082500