# vtk DataFile Version 2.0
Mesh for Fierro
ASCII 
DATASET UNSTRUCTURED_GRID

POINTS 2205 float
0.000000 0.000000 0.000000
0.155972 0.000000 0.000000
0.296759 0.000000 0.000000
0.415650 0.000000 0.000000
0.510301 0.000000 0.000000
0.586180 0.000000 0.000000
0.648282 0.000000 0.000000
0.697618 0.000000 0.000000
0.738644 0.000000 0.000000
0.775188 0.000000 0.000000
0.806095 0.000000 0.000000
0.833608 0.000000 0.000000
0.857905 0.000000 0.000000
0.879994 0.000000 0.000000
0.900051 0.000000 0.000000
0.918481 0.000000 0.000000
0.936202 0.000000 0.000000
0.952566 0.000000 0.000000
0.968523 0.000000 0.000000
0.984599 0.000000 0.000000
1.000000 0.000000 0.000000
0.000000 0.015401 0.000000
0.154818 0.016579 0.000000
0.294555 0.019245 0.000000
0.413352 0.023975 0.000000
0.508185 0.029374 0.000000
0.583456 0.037104 0.000000
0.645050 0.045701 0.000000
0.693953 0.054682 0.000000
0.734683 0.064665 0.000000
0.770616 0.074913 0.000000
0.801047 0.085354 0.000000
0.828469 0.096077 0.000000
0.851970 0.107165 0.000000
0.874215 0.117489 0.000000
0.894396 0.126622 0.000000
0.913667 0.134913 0.000000
0.931667 0.141625 0.000000
0.949374 0.147312 0.000000
0.966420 0.151756 0.000000
0.983421 0.154818 0.000000
1.000000 0.155972 0.000000
0.000000 0.031477 0.000000
0.151756 0.033580 0.000000
0.289079 0.038382 0.000000
0.406732 0.047746 0.000000
0.501091 0.058272 0.000000
0.575226 0.073281 0.000000
0.635740 0.089911 0.000000
0.683806 0.107241 0.000000
0.723586 0.126246 0.000000
0.758887 0.145734 0.000000
0.789165 0.165697 0.000000
0.815802 0.185931 0.000000
0.839775 0.206739 0.000000
0.862269 0.226141 0.000000
0.883034 0.243150 0.000000
0.903746 0.258364 0.000000
0.923135 0.270736 0.000000
0.942612 0.281301 0.000000
0.961618 0.289079 0.000000
0.980755 0.294555 0.000000
1.000000 0.296759 0.000000
0.000000 0.047434 0.000000
0.147312 0.050626 0.000000
0.281301 0.057388 0.000000
0.396577 0.070843 0.000000
0.489969 0.086113 0.000000
0.561855 0.107672 0.000000
0.620367 0.131510 0.000000
0.666845 0.156399 0.000000
0.705293 0.183588 0.000000
0.738791 0.210803 0.000000
0.768244 0.238997 0.000000
0.793810 0.266966 0.000000
0.817021 0.295309 0.000000
0.839471 0.321433 0.000000
0.861460 0.344684 0.000000
0.883866 0.365189 0.000000
0.906313 0.382398 0.000000
0.929157 0.396577 0.000000
0.952254 0.406732 0.000000
0.976025 0.413352 0.000000
1.000000 0.415650 0.000000
0.000000 0.063798 0.000000
0.141625 0.068333 0.000000
0.270736 0.076865 0.000000
0.382398 0.093687 0.000000
0.474139 0.113031 0.000000
0.542985 0.140069 0.000000
0.599293 0.169909 0.000000
0.644155 0.201171 0.000000
0.681496 0.235362 0.000000
0.713756 0.269248 0.000000
0.741648 0.304628 0.000000
0.767208 0.338753 0.000000
0.789971 0.373000 0.000000
0.813259 0.403414 0.000000
0.836622 0.430696 0.000000
0.861496 0.454329 0.000000
0.886969 0.474139 0.000000
0.913887 0.489969 0.000000
0.941728 0.501091 0.000000
0.970626 0.508185 0.000000
1.000000 0.510301 0.000000
0.000000 0.081519 0.000000
0.134913 0.086333 0.000000
0.258364 0.096254 0.000000
0.365189 0.116134 0.000000
0.454329 0.138504 0.000000
0.519751 0.169018 0.000000
0.573519 0.202764 0.000000
0.616707 0.238287 0.000000
0.652594 0.276382 0.000000
0.683333 0.313909 0.000000
0.709186 0.352812 0.000000
0.733367 0.390438 0.000000
0.755371 0.427645 0.000000
0.779057 0.461719 0.000000
0.803823 0.492464 0.000000
0.830982 0.519751 0.000000
0.859931 0.542985 0.000000
0.892328 0.561855 0.000000
0.926719 0.575226 0.000000
0.962896 0.583456 0.000000
1.000000 0.586180 0.000000
0.000000 0.099949 0.000000
0.126622 0.105604 0.000000
0.243150 0.116966 0.000000
0.344684 0.138540 0.000000
0.430696 0.163378 0.000000
0.492464 0.196177 0.000000
0.543589 0.232498 0.000000
0.585015 0.271042 0.000000
0.619420 0.311994 0.000000
0.648407 0.352413 0.000000
0.672656 0.393811 0.000000
0.695445 0.433956 0.000000
0.716737 0.473472 0.000000
0.741091 0.510149 0.000000
0.767502 0.543589 0.000000
0.797236 0.573519 0.000000
0.830091 0.599293 0.000000
0.868490 0.620367 0.000000
0.910089 0.635740 0.000000
0.954299 0.645050 0.000000
1.000000 0.648282 0.000000
0.000000 0.120006 0.000000
0.117489 0.125785 0.000000
0.226141 0.137731 0.000000
0.321433 0.160529 0.000000
0.403414 0.186741 0.000000
0.461719 0.220943 0.000000
0.510149 0.258909 0.000000
0.549508 0.299491 0.000000
0.582250 0.342238 0.000000
0.609320 0.384668 0.000000
0.632016 0.427857 0.000000
0.653884 0.469765 0.000000
0.675015 0.510804 0.000000
0.700509 0.549508 0.000000
0.728958 0.585015 0.000000
0.761713 0.616707 0.000000
0.798829 0.644155 0.000000
0.843601 0.666845 0.000000
0.892759 0.683806 0.000000
0.945318 0.693953 0.000000
1.000000 0.697618 0.000000
0.000000 0.142095 0.000000
0.107165 0.148030 0.000000
0.206739 0.160225 0.000000
0.295309 0.182979 0.000000
0.373000 0.210029 0.000000
0.427645 0.244629 0.000000
0.473472 0.283263 0.000000
0.510804 0.324985 0.000000
0.542131 0.369187 0.000000
0.567208 0.412848 0.000000
0.588466 0.457103 0.000000
0.609622 0.500192 0.000000
0.630813 0.542131 0.000000
0.657762 0.582250 0.000000
0.688006 0.619420 0.000000
0.723618 0.652594 0.000000
0.764638 0.681496 0.000000
0.816412 0.705293 0.000000
0.873754 0.723586 0.000000
0.935335 0.734683 0.000000
1.000000 0.738644 0.000000
0.000000 0.166392 0.000000
0.096077 0.171531 0.000000
0.185931 0.184198 0.000000
0.266966 0.206190 0.000000
0.338753 0.232792 0.000000
0.390438 0.266633 0.000000
0.433956 0.304555 0.000000
0.469765 0.346116 0.000000
0.500192 0.390378 0.000000
0.523904 0.434618 0.000000
0.544631 0.479537 0.000000
0.565382 0.523904 0.000000
0.587152 0.567208 0.000000
0.615332 0.609320 0.000000
0.647587 0.648407 0.000000
0.686091 0.683333 0.000000
0.730752 0.713756 0.000000
0.789197 0.738791 0.000000
0.854266 0.758887 0.000000
0.925087 0.770616 0.000000
1.000000 0.775188 0.000000
0.000000 0.193905 0.000000
0.085354 0.198953 0.000000
0.165697 0.210835 0.000000
0.238997 0.231756 0.000000
0.304628 0.258352 0.000000
0.352812 0.290814 0.000000
0.393811 0.327344 0.000000
0.427857 0.367984 0.000000
0.457103 0.411534 0.000000
0.479537 0.455369 0.000000
0.500000 0.500000 0.000000
0.520463 0.544631 0.000000
0.542897 0.588466 0.000000
0.572143 0.632016 0.000000
0.606189 0.672656 0.000000
0.647188 0.709186 0.000000
0.695372 0.741648 0.000000
0.761003 0.768244 0.000000
0.834303 0.789165 0.000000
0.914646 0.801047 0.000000
1.000000 0.806095 0.000000
0.000000 0.224812 0.000000
0.074913 0.229384 0.000000
0.145734 0.241113 0.000000
0.210803 0.261209 0.000000
0.269248 0.286244 0.000000
0.313909 0.316667 0.000000
0.352413 0.351593 0.000000
0.384668 0.390680 0.000000
0.412848 0.432792 0.000000
0.434618 0.476096 0.000000
0.455369 0.520463 0.000000
0.476096 0.565382 0.000000
0.499808 0.609622 0.000000
0.530235 0.653884 0.000000
0.566044 0.695445 0.000000
0.609562 0.733367 0.000000
0.661247 0.767208 0.000000
0.733034 0.793810 0.000000
0.814069 0.815802 0.000000
0.903923 0.828469 0.000000
1.000000 0.833608 0.000000
0.000000 0.261356 0.000000
0.064665 0.265317 0.000000
0.126246 0.276414 0.000000
0.183588 0.294707 0.000000
0.235362 0.318504 0.000000
0.276382 0.347406 0.000000
0.311994 0.380580 0.000000
0.342238 0.417750 0.000000
0.369187 0.457869 0.000000
0.390378 0.499808 0.000000
0.411534 0.542897 0.000000
0.432792 0.587152 0.000000
0.457869 0.630813 0.000000
0.489196 0.675015 0.000000
0.526528 0.716737 0.000000
0.572355 0.755371 0.000000
0.627000 0.789971 0.000000
0.704691 0.817021 0.000000
0.793261 0.839775 0.000000
0.892835 0.851970 0.000000
1.000000 0.857905 0.000000
0.000000 0.302382 0.000000
0.054682 0.306047 0.000000
0.107241 0.316194 0.000000
0.156399 0.333155 0.000000
0.201171 0.355845 0.000000
0.238287 0.383293 0.000000
0.271042 0.414985 0.000000
0.299491 0.450492 0.000000
0.324985 0.489196 0.000000
0.346116 0.530235 0.000000
0.367984 0.572143 0.000000
0.390680 0.615332 0.000000
0.417750 0.657762 0.000000
0.450492 0.700509 0.000000
0.489851 0.741091 0.000000
0.538281 0.779057 0.000000
0.596586 0.813259 0.000000
0.678567 0.839471 0.000000
0.773859 0.862269 0.000000
0.882511 0.874215 0.000000
1.000000 0.879994 0.000000
0.000000 0.351718 0.000000
0.045701 0.354950 0.000000
0.089911 0.364260 0.000000
0.131510 0.379633 0.000000
0.169909 0.400707 0.000000
0.202764 0.426481 0.000000
0.232498 0.456411 0.000000
0.258909 0.489851 0.000000
0.283263 0.526528 0.000000
0.304555 0.566044 0.000000
0.327344 0.606189 0.000000
0.351593 0.647587 0.000000
0.380580 0.688006 0.000000
0.414985 0.728958 0.000000
0.456411 0.767502 0.000000
0.507536 0.803823 0.000000
0.569304 0.836622 0.000000
0.655316 0.861460 0.000000
0.756850 0.883034 0.000000
0.873378 0.894396 0.000000
1.000000 0.900051 0.000000
0.000000 0.413820 0.000000
0.037104 0.416544 0.000000
0.073281 0.424774 0.000000
0.107672 0.438145 0.000000
0.140069 0.457015 0.000000
0.169018 0.480249 0.000000
0.196177 0.507536 0.000000
0.220943 0.538281 0.000000
0.244629 0.572355 0.000000
0.266633 0.609562 0.000000
0.290814 0.647188 0.000000
0.316667 0.686091 0.000000
0.347406 0.723618 0.000000
0.383293 0.761713 0.000000
0.426481 0.797236 0.000000
0.480249 0.830982 0.000000
0.545671 0.861496 0.000000
0.634811 0.883866 0.000000
0.741636 0.903746 0.000000
0.865087 0.913667 0.000000
1.000000 0.918481 0.000000
0.000000 0.489699 0.000000
0.029374 0.491815 0.000000
0.058272 0.498909 0.000000
0.086113 0.510031 0.000000
0.113031 0.525861 0.000000
0.138504 0.545671 0.000000
0.163378 0.569304 0.000000
0.186741 0.596586 0.000000
0.210029 0.627000 0.000000
0.232792 0.661247 0.000000
0.258352 0.695372 0.000000
0.286244 0.730752 0.000000
0.318504 0.764638 0.000000
0.355845 0.798829 0.000000
0.400707 0.830091 0.000000
0.457015 0.859931 0.000000
0.525861 0.886969 0.000000
0.617602 0.906313 0.000000
0.729264 0.923135 0.000000
0.858375 0.931667 0.000000
1.000000 0.936202 0.000000
0.000000 0.584350 0.000000
0.023975 0.586648 0.000000
0.047746 0.593268 0.000000
0.070843 0.603423 0.000000
0.093687 0.617602 0.000000
0.116134 0.634811 0.000000
0.138540 0.655316 0.000000
0.160529 0.678567 0.000000
0.182979 0.704691 0.000000
[...]
POINT_DATA 2205 
VECTORS pos float 
0.000000 0.000000 0.000000
0.155972 0.000000 0.000000
0.296759 0.000000 0.000000
0.415650 0.000000 0.000000
0.510301 0.000000 0.000000
0.586180 0.000000 0.000000
0.648282 0.000000 0.000000
0.697618 0.000000 0.000000
0.738644 0.000000 0.000000
0.775188 0.000000 0.000000
0.806095 0.000000 0.000000
0.833608 0.000000 0.000000
0.857905 0.000000 0.000000
0.879994 0.000000 0.000000
0.900051 0.000000 0.000000
0.918481 0.000000 0.000000
0.936202 0.000000 0.000000
0.952566 0.000000 0.000000
0.968523 0.000000 0.000000
0.984599 0.000000 0.000000
1.000000 0.000000 0.000000
0.000000 0.015401 0.000000
0.154818 0.016579 0.000000
0.294555 0.019245 0.000000
0.413352 0.023975 0.000000
0.508185 0.029374 0.000000
0.583456 0.037104 0.000000
0.645050 0.045701 0.000000
0.693953 0.054682 0.000000
0.734683 0.064665 0.000000
0.770616 0.074913 0.000000
0.801047 0.085354 0.000000
0.828469 0.096077 0.000000
0.851970 0.107165 0.000000
0.874215 0.117489 0.000000
0.894396 0.126622 0.000000
0.913667 0.134913 0.000000
0.931667 0.141625 0.000000
0.949374 0.147312 0.000000
0.966420 0.151756 0.000000
0.983421 0.154818 0.000000
1.000000 0.155972 0.000000
0.000000 0.031477 0.000000
0.151756 0.033580 0.000000
0.289079 0.038382 0.000000
0.406732 0.047746 0.000000
0.501091 0.058272 0.000000
0.575226 0.073281 0.000000
0.635740 0.089911 0.000000
0.683806 0.107241 0.000000
0.723586 0.126246 0.000000
0.758887 0.145734 0.000000
0.789165 0.165697 0.000000
0.815802 0.185931 0.000000
0.839775 0.206739 0.000000
0.862269 0.226141 0.000000
0.883034 0.243150 0.000000
0.903746 0.258364 0.000000
0.923135 0.270736 0.000000
0.942612 0.281301 0.000000
0.961618 0.289079 0.000000
0.980755 0.294555 0.000000
1.000000 0.296759 0.000000
0.000000 0.047434 0.000000
0.147312 0.050626 0.000000
0.281301 0.057388 0.000000
0.396577 0.070843 0.000000
0.489969 0.086113 0.000000
0.561855 0.107672 0.000000
0.620367 0.131510 0.000000
0.666845 0.156399 0.000000
0.705293 0.183588 0.000000
0.738791 0.210803 0.000000
0.768244 0.238997 0.000000
0.793810 0.266966 0.000000
0.817021 0.295309 0.000000
0.839471 0.321433 0.000000
0.861460 0.344684 0.000000
0.883866 0.365189 0.000000
0.906313 0.382398 0.000000
0.929157 0.396577 0.000000
0.952254 0.406732 0.000000
0.976025 0.413352 0.000000
1.000000 0.415650 0.000000
0.000000 0.063798 0.000000
0.141625 0.068333 0.000000
0.270736 0.076865 0.000000
0.382398 0.093687 0.000000
0.474139 0.113031 0.000000
0.542985 0.140069 0.000000
0.599293 0.169909 0.000000
0.644155 0.201171 0.000000
0.681496 0.235362 0.000000
0.713756 0.269248 0.000000
0.741648 0.304628 0.000000
0.767208 0.338753 0.000000
0.789971 0.373000 0.000000
0.813259 0.403414 0.000000
0.836622 0.430696 0.000000
0.861496 0.454329 0.000000
0.886969 0.474139 0.000000
0.913887 0.489969 0.000000
0.941728 0.501091 0.000000
0.970626 0.508185 0.000000
1.000000 0.510301 0.000000
0.000000 0.081519 0.000000
0.134913 0.086333 0.000000
0.258364 0.096254 0.000000
0.365189 0.116134 0.000000
0.454329 0.138504 0.000000
0.519751 0.169018 0.000000
0.573519 0.202764 0.000000
0.616707 0.238287 0.000000
0.652594 0.276382 0.000000
0.683333 0.313909 0.000000
0.709186 0.352812 0.000000
0.733367 0.390438 0.000000
0.755371 0.427645 0.000000
0.779057 0.461719 0.000000
0.803823 0.492464 0.000000
0.830982 0.519751 0.000000
0.859931 0.542985 0.000000
0.892328 0.561855 0.000000
0.926719 0.575226 0.000000
0.962896 0.583456 0.000000
1.000000 0.586180 0.000000
0.000000 0.099949 0.000000
0.126622 0.105604 0.000000
0.243150 0.116966 0.000000
0.344684 0.138540 0.000000
0.430696 0.163378 0.000000
0.492464 0.196177 0.000000
0.543589 0.232498 0.000000
0.585015 0.271042 0.000000
0.619420 0.311994 0.000000
0.648407 0.352413 0.000000
0.672656 0.393811 0.000000
0.695445 0.433956 0.000000
0.716737 0.473472 0.000000
0.741091 0.510149 0.000000
0.767502 0.543589 0.000000
0.797236 0.573519 0.000000
0.830091 0.599293 0.000000
0.868490 0.620367 0.000000
0.910089 0.635740 0.000000
0.954299 0.645050 0.000000
1.000000 0.648282 0.000000
0.000000 0.120006 0.000000
0.117489 0.125785 0.000000
0.226141 0.137731 0.000000
0.321433 0.160529 0.000000
0.403414 0.186741 0.000000
0.461719 0.220943 0.000000
0.510149 0.258909 0.000000
0.549508 0.299491 0.000000
0.582250 0.342238 0.000000
0.609320 0.384668 0.000000
0.632016 0.427857 0.000000
0.653884 0.469765 0.000000
0.675015 0.510804 0.000000
0.700509 0.549508 0.000000
0.728958 0.585015 0.000000
0.761713 0.616707 0.000000
0.798829 0.644155 0.000000
0.843601 0.666845 0.000000
0.892759 0.683806 0.000000
0.945318 0.693953 0.000000
1.000000 0.697618 0.000000
0.000000 0.142095 0.000000
0.107165 0.148030 0.000000
0.206739 0.160225 0.000000
0.295309 0.182979 0.000000
0.373000 0.210029 0.000000
0.427645 0.244629 0.000000
0.473472 0.283263 0.000000
0.510804 0.324985 0.000000
0.542131 0.369187 0.000000
0.567208 0.412848 0.000000
0.588466 0.457103 0.000000
0.609622 0.500192 0.000000
0.630813 0.542131 0.000000
0.657762 0.582250 0.000000
0.688006 0.619420 0.000000
0.723618 0.652594 0.000000
0.764638 0.681496 0.000000
0.816412 0.705293 0.000000
0.873754 0.723586 0.000000
0.935335 0.734683 0.000000
1.000000 0.738644 0.000000
0.000000 0.166392 0.000000
0.096077 0.171531 0.000000
0.185931 0.184198 0.000000
0.266966 0.206190 0.000000
0.338753 0.232792 0.000000
0.390438 0.266633 0.000000
0.433956 0.304555 0.000000
0.469765 0.346116 0.000000
0.500192 0.390378 0.000000
0.523904 0.434618 0.000000
0.544631 0.479537 0.000000
0.565382 0.523904 0.000000
0.587152 0.567208 0.000000
0.615332 0.609320 0.000000
0.647587 0.648407 0.000000
0.686091 0.683333 0.000000
0.730752 0.713756 0.000000
0.789197 0.738791 0.000000
0.854266 0.758887 0.000000
0.925087 0.770616 0.000000
1.000000 0.775188 0.000000
0.000000 0.193905 0.000000
0.085354 0.198953 0.000000
0.165697 0.210835 0.000000
0.238997 0.231756 0.000000
0.304628 0.258352 0.000000
0.352812 0.290814 0.000000
0.393811 0.327344 0.000000
0.427857 0.367984 0.000000
0.457103 0.411534 0.000000
0.479537 0.455369 0.000000
0.500000 0.500000 0.000000
0.520463 0.544631 0.000000
0.542897 0.588466 0.000000
0.572143 0.632016 0.000000
0.606189 0.672656 0.000000
0.647188 0.709186 0.000000
0.695372 0.741648 0.000000
0.761003 0.768244 0.000000
0.834303 0.789165 0.000000
0.914646 0.801047 0.000000
1.000000 0.806095 0.000000
0.000000 0.224812 0.000000
0.074913 0.229384 0.000000
0.145734 0.241113 0.000000
0.210803 0.261209 0.000000
0.269248 0.286244 0.000000
0.313909 0.316667 0.000000
0.352413 0.351593 0.000000
0.384668 0.390680 0.000000
0.412848 0.432792 0.000000
0.434618 0.476096 0.000000
0.455369 0.520463 0.000000
0.476096 0.565382 0.000000
0.499808 0.609622 0.000000
0.530235 0.653884 0.000000
0.566044 0.695445 0.000000
0.609562 0.733367 0.000000
0.661247 0.767208 0.000000
0.733034 0.793810 0.000000
0.814069 0.815802 0.000000
0.903923 0.828469 0.000000
1.000000 0.833608 0.000000
0.000000 0.261356 0.000000
0.064665 0.265317 0.000000
0.126246 0.276414 0.000000
0.183588 0.294707 0.000000
0.235362 0.318504 0.000000
0.276382 0.347406 0.000000
0.311994 0.380580 0.000000
0.342238 0.417750 0.000000
0.369187 0.457869 0.000000
0.390378 0.499808 0.000000
0.411534 0.542897 0.000000
0.432792 0.587152 0.000000
0.457869 0.630813 0.000000
0.489196 0.675015 0.000000
0.526528 0.716737 0.000000
0.572355 0.755371 0.000000
0.627000 0.789971 0.000000
0.704691 0.817021 0.000000
0.793261 0.839775 0.000000
0.892835 0.851970 0.000000
1.000000 0.857905 0.000000
0.000000 0.302382 0.000000
0.054682 0.306047 0.000000
0.107241 0.316194 0.000000
0.156399 0.333155 0.000000
0.201171 0.355845 0.000000
0.238287 0.383293 0.000000
0.271042 0.414985 0.000000
0.299491 0.450492 0.000000
0.324985 0.489196 0.000000
0.346116 0.530235 0.000000
0.367984 0.572143 0.000000
0.390680 0.615332 0.000000
0.417750 0.657762 0.000000
0.450492 0.700509 0.000000
0.489851 0.741091 0.000000
0.538281 0.779057 0.000000
0.596586 0.813259 0.000000
0.678567 0.839471 0.000000
0.773859 0.862269 0.000000
0.882511 0.874215 0.000000
1.000000 0.879994 0.000000
0.000000 0.351718 0.000000
0.045701 0.354950 0.000000
0.089911 0.364260 0.000000
0.131510 0.379633 0.000000
0.169909 0.400707 0.000000
0.202764 0.426481 0.000000
0.232498 0.456411 0.000000
0.258909 0.489851 0.000000
0.283263 0.526528 0.000000
0.304555 0.566044 0.000000
0.327344 0.606189 0.000000
0.351593 0.647587 0.000000
0.380580 0.688006 0.000000
0.414985 0.728958 0.000000
0.456411 0.767502 0.000000
0.507536 0.803823 0.000000
0.569304 0.836622 0.000000
0.655316 0.861460 0.000000
0.756850 0.883034 0.000000
0.873378 0.894396 0.000000
1.000000 0.900051 0.000000
0.000000 0.413820 0.000000
0.037104 0.416544 0.000000
0.073281 0.424774 0.000000
0.107672 0.438145 0.000000
0.140069 0.457015 0.000000
0.169018 0.480249 0.000000
0.196177 0.507536 0.000000
0.220943 0.538281 0.000000
0.244629 0.572355 0.000000
0.266633 0.609562 0.000000
0.290814 0.647188 0.000000
0.316667 0.686091 0.000000
0.347406 0.723618 0.000000
0.383293 0.761713 0.000000
0.426481 0.797236 0.000000
0.480249 0.830982 0.000000
0.545671 0.861496 0.000000
0.634811 0.883866 0.000000
0.741636 0.903746 0.000000
0.865087 0.913667 0.000000
1.000000 0.918481 0.000000
0.000000 0.489699 0.000000
0.029374 0.491815 0.000000
0.058272 0.498909 0.000000
0.086113 0.510031 0.000000
0.113031 0.525861 0.000000
0.138504 0.545671 0.000000
0.163378 0.569304 0.000000
0.186741 0.596586 0.000000
0.210029 0.627000 0.000000
0.232792 0.661247 0.000000
0.258352 0.695372 0.000000
0.286244 0.730752 0.000000
0.318504 0.764638 0.000000
0.355845 0.798829 0.000000
0.400707 0.830091 0.000000
0.457015 0.859931 0.000000
0.525861 0.886969 0.000000
0.617602 0.906313 0.000000
0.729264 0.923135 0.000000
0.858375 0.931667 0.000000
1.000000 0.936202 0.000000
0.000000 0.584350 0.000000
0.023975 0.586648 0.000000
0.047746 0.593268 0.000000
0.070843 0.603423 0.000000
0.093687 0.617602 0.000000
0.116134 0.634811 0.000000
0.138540 0.655316 0.000000
0.160529 0.678567 0.000000
0.182979 0.704691 0.000000
0.206190 0.733034 0.000000
0.231756 0.761003 0.000000
0.261209 0.789197 0.000000
0.294707 0.816412 0.000000
0.333155 0.843601 0.000000
0.379633 0.868490 0.000000
0.438145 0.892328 0.000000
0.510031 0.913887 0.000000
0.603423 0.929157 0.000000
0.718699 0.942612 0.000000
0.852688 0.949374 0.000000
1.000000 0.952566 0.000000
0.000000 0.703241 0.000000
0.019245 0.705445 0.000000
0.038382 0.710921 0.000000
0.057388 0.718699 0.000000
0.076865 0.729264 0.000000
0.096254 0.741636 0.000000
0.116966 0.756850 0.000000
0.137731 0.773859 0.000000
0.160225 0.793261 0.000000
0.184198 0.814069 0.000000
0.210835 0.834303 0.000000
0.241113 0.854266 0.000000
0.276414 0.873754 0.000000
0.316194 0.892759 0.000000
0.364260 0.910089 0.000000
0.424774 0.926719 0.000000
0.498909 0.941728 0.000000
0.593268 0.952254 0.000000
0.710921 0.961618 0.000000
0.848244 0.966420 0.000000
1.000000 0.968523 0.000000
0.000000 0.844028 0.000000
0.016579 0.845182 0.000000
0.033580 0.848244 0.000000
0.050626 0.852688 0.000000
0.068333 0.858375 0.000000
0.086333 0.865087 0.000000
0.105604 0.873378 0.000000
0.125785 0.882511 0.000000
0.148030 0.892835 0.000000
0.171531 0.903923 0.000000
0.198953 0.914646 0.000000
0.229384 0.925087 0.000000
0.265317 0.935335 0.000000
0.306047 0.945318 0.000000
0.354950 0.954299 0.000000
0.416544 0.962896 0.000000
0.491815 0.970626 0.000000
0.586648 0.976025 0.000000
0.705445 0.980755 0.000000
0.845182 0.983421 0.000000
1.000000 0.984599 0.000000
0.000000 1.000000 0.000000
0.015401 1.000000 0.000000
0.031477 1.000000 0.000000
0.047434 1.000000 0.000000
0.063798 1.000000 0.000000
0.081519 1.000000 0.000000
0.099949 1.000000 0.000000
0.120006 1.000000 0.000000
0.142095 1.000000 0.000000
0.166392 1.000000 0.000000
0.193905 1.000000 0.000000
0.224812 1.000000 0.000000
0.261356 1.000000 0.000000
0.302382 1.000000 0.000000
0.351718 1.000000 0.000000
0.413820 1.000000 0.000000
0.489699 1.000000 0.000000
0.584350 1.000000 0.000000
0.703241 1.000000 0.000000
0.844028 1.000000 0.000000
1.000000 1.000000 0.000000
0.000000 0.000000 0.082500
0.155972 0.000000 0.082500
0.296759 0.000000 0.082500
0.415650 0.000000 0.082500
0.510301 0.000000 0.082500
0.586180 0.000000 0.082500
0.648282 0.000000 0.082500
0.697618 0.000000 0.082500
0.738644 0.000000 0.082500
0.775188 0.000000 0.082500
0.806095 0.000000 0.082500
0.833608 0.000000 0.082500
0.857905 0.000000 0.082500
0.879994 0.000000 0.082500
0.900051 0.000000 0.082500
0.918481 0.000000 0.082500
0.936202 0.000000 0.082500
0.952566 0.000000 0.082500
0.968523 0.000000 0.082500
0.984599 0.000000 0.082500
1.000000 0.000000 0.082500
0.000000 0.015401 0.082500
0.154818 0.016579 0.082500
0.294555 0.019245 0.082500
0.413352 0.023975 0.082500
0.508185 0.029374 0.082500
0.583456 0.037104 0.082500
0.645050 0.045701 0.082500
0.693953 0.054682 0.082500
0.734683 0.064665 0.082500
0.770616 0.074913 0.082500
0.801047 0.085354 0.082500
0.828469 0.096077 0.082500
0.851970 0.107165 0.082500
0.874215 0.117489 0.082500
0.894396 0.126622 0.082500
0.913667 0.134913 0.082500
0.931667 0.141625 0.082500
0.949374 0.147312 0.082500
0.966420 0.151756 0.082500
0.983421 0.154818 0.082500
1.000000 0.155972 0.082500
0.000000 0.031477 0.082500
0.151756 0.033580 0.082500
0.289079 0.038382 0.082500
0.406732 0.047746 0.082500
0.501091 0.058272 0.082500
0.575226 0.073281 0.082500
0.635740 0.089911 0.082500
0.683806 0.107241 0.082500
0.723586 0.126246 0.082500
0.758887 0.145734 0.082500
0.789165 0.165697 0.082500
0.815802 0.185931 0.082500
0.839775 0.206739 0.082500
0.862269 0.226141 0.082500
0.883034 0.243150 0.082500
0.903746 0.258364 0.082500
0.923135 0.270736 0.082500
0.942612 0.281301 0.082500
0.961618 0.289079 0.082500
0.980755 0.294555 0.082500
1.000000 0.296759 0.082500
0.000000 0.047434 0.082500
0.147312 0.050626 0.082500
0.281301 0.057388 0.082500
0.396577 0.070843 0.082500
0.489969 0.086113 0.082500
0.561855 0.107672 0.082500
0.620367 0.131510 0.082500
0.666845 0.156399 0.082500
0.705293 0.183588 0.082500
0.738791 0.210803 0.082500
0.768244 0.238997 0.082500
0.793810 0.266966 0.082500
0.817021 0.295309 0.082500
0.839471 0.321433 0.082500
0.861460 0.344684 0.082500
0.883866 0.365189 0.082500
0.906313 0.382398 0.082500
0.929157 0.396577 0.082500
0.952254 0.406732 0.082500
0.976025 0.413352 0.082500
1.000000 0.415650 0.082500
0.000000 0.063798 0.082500
0.141625 0.068333 0.082500
0.270736 0.076865 0.082500
0.382398 0.093687 0.082500
0.474139 0.113031 0.082500
0.542985 0.140069 0.082500
0.599293 0.169909 0.082500
0.644155 0.201171 0.082500
0.681496 0.235362 0.082500
0.713756 0.269248 0.082500
0.741648 0.304628 0.082500
0.767208 0.338753 0.082500
0.789971 0.373000 0.082500
0.813259 0.403414 0.082500
0.836622 0.430696 0.082500
0.861496 0.454329 0.082500
0.886969 0.474139 0.082500
0.913887 0.489969 0.082500
0.941728 0.501091 0.082500
0.970626 0.508185 0.082500
1.000000 0.510301 0.082500
0.000000 0.081519 0.082500
0.134913 0.086333 0.082500
0.258364 0.096254 0.082500
0.365189 0.116134 0.082500
0.454329 0.138504 0.082500
0.519751 0.169018 0.082500
0.573519 0.202764 0.082500
0.616707 0.238287 0.082500
0.652594 0.276382 0.082500
0.683333 0.313909 0.082500
0.709186 0.352812 0.082500
0.733367 0.390438 0.082500
0.755371 0.427645 0.082500
0.779057 0.461719 0.082500
0.803823 0.492464 0.082500
0.830982 0.519751 0.082500
0.859931 0.542985 0.082500
0.892328 0.561855 0.082500
0.926719 0.575226 0.082500
0.962896 0.583456 0.082500
1.000000 0.586180 0.082500
0.000000 0.099949 0.082500
0.126622 0.105604 0.082500
0.243150 0.116966 0.082500
0.344684 0.138540 0.082500
0.430696 0.163378 0.082500
0.492464 0.196177 0.082500
0.543589 0.232498 0.082500
0.585015 0.271042 0.082500
0.619420 0.311994 0.082500
0.648407 0.352413 0.082500
0.672656 0.393811 0.082500
0.695445 0.433956 0.082500
0.716737 0.473472 0.082500
0.741091 0.510149 0.082500
0.767502 0.543589 0.082500
0.797236 0.573519 0.082500
0.830091 0.599293 0.082500
0.868490 0.620367 0.082500
0.910089 0.635740 0.082500
0.954299 0.645050 0.082500
1.000000 0.648282 0.082500
0.000000 0.120006 0.082500
0.117489 0.125785 0.082500
0.226141 0.137731 0.082500
0.321433 0.160529 0.082500
0.403414 0.186741 0.082500
0.461719 0.220943 0.082500
0.510149 0.258909 0.082500
0.549508 0.299491 0.082500
0.582250 0.342238 0.082500
0.609320 0.384668 0.082500
0.632016 0.427857 0.082500
0.653884 0.469765 0.082500
0.675015 0.510804 0.082500
0.700509 0.549508 0.082500
0.728958 0.585015 0.082500
0.761713 0.616707 0.082500
0.798829 0.644155 0.082500
0.843601 0.666845 0.082500
0.892759 0.683806 0.082500
0.945318 0.693953 0.082500
1.000000 0.697618 0.082500
0.000000 0.142095 0.082500
0.107165 0.148030 0.082500
0.206739 0.160225 0.082500
0.295309 0.182979 0.082500
0.373000 0.210029 0.082500
0.427645 0.244629 0.082500
0.473472 0.283263 0.082500
0.510804 0.324985 0.082500
0.542131 0.369187 0.082500
0.567208 0.412848 0.082500
0.588466 0.457103 0.082500
0.609622 0.500192 0.082500
0.630813 0.542131 0.082500
0.657762 0.582250 0.082500
0.688006 0.619420 0.082500
0.723618 0.652594 0.082500
0.764638 0.681496 0.082500
0.816412 0.705293 0.082500
0.873754 0.723586 0.082500
0.935335 0.734683 0.082500
1.000000 0.738644 0.082500
0.000000 0.166392 0.082500
0.096077 0.171531 0.082500
0.185931 0.184198 0.082500
0.266966 0.206190 0.082500
0.338753 0.232792 0.082500
0.390438 0.266633 0.082500
0.433956 0.304555 0.082500
0.469765 0.346116 0.082500
0.500192 0.390378 0.082500
0.523904 0.434618 0.082500
0.544631 0.479537 0.082500
0.565382 0.523904 0.082500
0.587152 0.567208 0.082500
0.615332 0.609320 0.082500
0.647587 0.648407 0.082500
0.686091 0.683333 0.082500
0.730752 0.713756 0.082500
0.789197 0.738791 0.082500
0.854266 0.758887 0.082500
0.925087 0.770616 0.082500
1.000000 0.775188 0.082500
0.000000 0.193905 0.082500
0.085354 0.198953 0.082500
0.165697 0.210835 0.082500
0.238997 0.231756 0.082500
0.304628 0.258352 0.082500
0.352812 0.290814 0.082500
0.393811 0.327344 0.082500
0.427857 0.367984 0.082500
0.457103 0.411534 0.082500
0.479537 0.455369 0.082500
0.500000 0.500000 0.082500
0.520463 0.544631 0.082500
0.542897 0.588466 0.082500
0.572143 0.632016 0.082500
0.606189 0.672656 0.082500
0.647188 0.709186 0.082500
0.695372 0.741648 0.082500
0.761003 0.768244 0.082500
0.834303 0.789165 0.082500
0.914646 0.801047 0.082500
1.000000 0.806095 0.082500
0.000000 0.224812 0.082500
0.074913 0.229384 0.082500
0.145734 0.241113 0.082500
0.210803 0.261209 0.082500
0.269248 0.286244 0.082500
0.313909 0.316667 0.082500
0.352413 0.351593 0.082500
0.384668 0.390680 0.082500
0.412848 0.432792 0.082500
0.434618 0.476096 0.082500
0.455369 0.520463 0.082500
0.476096 0.565382 0.082500
0.499808 0.609622 0.082500
0.530235 0.653884 0.082500
0.566044 0.695445 0.082500
0.609562 0.733367 0.082500
0.661247 0.767208 0.082500
0.733034 0.793810 0.082500
0.814069 0.815802 0.082500
0.903923 0.828469 0.082500
1.000000 0.833608 0.082500
0.000000 0.261356 0.082500
0.064665 0.265317 0.082500
0.126246 0.276414 0.082500
0.183588 0.294707 0.082500
0.235362 0.318504 0.082500
0.276382 0.347406 0.082500
0.311994 0.380580 0.082500
0.342238 0.417750 0.082500
0.369187 0.457869 0.082500
0.390378 0.499808 0.082500
0.411534 0.542897 0.082500
0.432792 0.587152 0.082500
0.457869 0.630813 0.082500
0.489196 0.675015 0.082500
0.526528 0.716737 0.082500
0.572355 0.755371 0.082500
0.627000 0.789971 0.082500
0.704691 0.817021 0.082500
0.793261 0.839775 0.082500
0.892835 0.851970 0.082500
1.000000 0.857905 0.082500
0.000000 0.302382 0.082500
0.054682 0.306047 0.082500
0.107241 0.316194 0.082500
0.156399 0.333155 0.082500
0.201171 0.355845 0.082500
0.238287 0.383293 0.082500
0.271042 0.414985 0.082500
0.299491 0.450492 0.082500
0.324985 0.489196 0.082500
0.346116 0.530235 0.082500
0.367984 0.572143 0.082500
0.390680 0.615332 0.082500
0.417750 0.657762 0.082500
0.450492 0.700509 0.082500
0.489851 0.741091 0.082500
0.538281 0.779057 0.082500
0.596586 0.813259 0.082500
0.678567 0.839471 0.082500
0.773859 0.862269 0.082500
0.882511 0.874215 0.082500
1.000000 0.879994 0.082500
0.000000 0.351718 0.082500
0.045701 0.354950 0.082500
0.089911 0.364260 0.082500
0.131510 0.379633 0.082500