# vtk DataFile Version 2.0
Mesh for Fierro
ASCII 
DATASET UNSTRUCTURED_GRID

POINTS 2205 float
0.000000 0.000000 0.000000
0.151404 0.000000 0.000000
0.288865 0.000000 0.000000
0.406172 0.000000 0.000000
0.500536 0.000000 0.000000
0.576650 0.000000 0.000000
0.639288 0.000000 0.000000
0.689418 0.000000 0.000000
0.731184 0.000000 0.000000
0.768531 0.000000 0.000000
0.800378 0.000000 0.000000
0.828511 0.000000 0.000000
0.852958 0.000000 0.000000
0.876313 0.000000 0.000000
0.896533 0.000000 0.000000
0.916224 0.000000 0.000000
0.933457 0.000000 0.000000
0.951031 0.000000 0.000000
0.967795 0.000000 0.000000
0.983864 0.000000 0.000000
1.000000 0.000000 0.000000
0.000000 0.016136 0.000000
0.150288 0.017090 0.000000
0.286735 0.019520 0.000000
0.403930 0.024159 0.000000
0.498480 0.029354 0.000000
0.573991 0.036825 0.000000
0.636147 0.045098 0.000000
0.685872 0.053740 0.000000
0.727424 0.063322 0.000000
0.764184 0.073210 0.000000
0.795620 0.083272 0.000000
0.823487 0.093619 0.000000
0.847950 0.104277 0.000000
0.870618 0.114275 0.000000
0.891467 0.123047 0.000000
0.911268 0.131062 0.000000
0.929857 0.137526 0.000000
0.947990 0.143066 0.000000
0.965564 0.147343 0.000000
0.982910 0.150288 0.000000
1.000000 0.151404 0.000000
0.000000 0.032205 0.000000
0.147343 0.034436 0.000000
0.281436 0.039098 0.000000
0.397462 0.048105 0.000000
0.491523 0.058303 0.000000
0.565863 0.072778 0.000000
0.626989 0.088810 0.000000
0.675828 0.105488 0.000000
0.716675 0.123821 0.000000
0.752477 0.142590 0.000000
0.784076 0.161887 0.000000
0.811151 0.181461 0.000000
0.835965 0.201567 0.000000
0.858898 0.220348 0.000000
0.880435 0.236811 0.000000
0.901533 0.251615 0.000000
0.921762 0.263641 0.000000
0.941454 0.273898 0.000000
0.960902 0.281436 0.000000
0.980480 0.286735 0.000000
1.000000 0.288865 0.000000
0.000000 0.048969 0.000000
0.143066 0.052010 0.000000
0.273898 0.058546 0.000000
0.387556 0.071482 0.000000
0.480618 0.086238 0.000000
0.552714 0.107048 0.000000
0.611920 0.130059 0.000000
0.659213 0.154106 0.000000
0.698833 0.180420 0.000000
0.733063 0.206785 0.000000
0.763419 0.234167 0.000000
0.790080 0.261294 0.000000
0.813858 0.288857 0.000000
0.837034 0.314259 0.000000
0.859542 0.336922 0.000000
0.882525 0.356921 0.000000
0.905294 0.373689 0.000000
0.928518 0.387556 0.000000
0.951895 0.397462 0.000000
0.975841 0.403930 0.000000
1.000000 0.406172 0.000000
0.000000 0.066543 0.000000
0.137526 0.070143 0.000000
0.263641 0.078238 0.000000
0.373689 0.094706 0.000000
0.465052 0.113324 0.000000
0.534138 0.139463 0.000000
0.591170 0.168294 0.000000
0.636922 0.198598 0.000000
0.675335 0.231730 0.000000
0.708657 0.264661 0.000000
0.737362 0.299117 0.000000
0.763924 0.332374 0.000000
0.787682 0.365747 0.000000
0.811651 0.395558 0.000000
0.835572 0.422336 0.000000
0.860869 0.445547 0.000000
0.886676 0.465052 0.000000
0.913762 0.480618 0.000000
0.941697 0.491523 0.000000
0.970646 0.498480 0.000000
1.000000 0.500536 0.000000
0.000000 0.083776 0.000000
0.131062 0.088732 0.000000
0.251615 0.098467 0.000000
0.356921 0.117475 0.000000
0.445547 0.139131 0.000000
0.511292 0.168637 0.000000
0.565813 0.201338 0.000000
0.609973 0.235895 0.000000
0.646976 0.272944 0.000000
0.678813 0.309566 0.000000
0.705771 0.347531 0.000000
0.730906 0.384354 0.000000
0.753907 0.420838 0.000000
0.778413 0.454279 0.000000
0.803782 0.484475 0.000000
0.831363 0.511292 0.000000
0.860537 0.534138 0.000000
0.892952 0.552714 0.000000
0.927222 0.565863 0.000000
0.963175 0.573991 0.000000
1.000000 0.576650 0.000000
0.000000 0.103467 0.000000
0.123047 0.108533 0.000000
0.236811 0.119565 0.000000
0.336922 0.140458 0.000000
0.422336 0.164428 0.000000
0.484475 0.196218 0.000000
0.536356 0.231504 0.000000
0.578791 0.269082 0.000000
0.614373 0.309001 0.000000
0.644469 0.348544 0.000000
0.669968 0.389109 0.000000
0.693873 0.428506 0.000000
0.716226 0.467367 0.000000
0.741430 0.503454 0.000000
0.768496 0.536356 0.000000
0.798662 0.565813 0.000000
0.831706 0.591170 0.000000
0.869941 0.611920 0.000000
0.911190 0.626989 0.000000
0.954902 0.636147 0.000000
1.000000 0.639288 0.000000
0.000000 0.123687 0.000000
0.114275 0.129382 0.000000
0.220348 0.141102 0.000000
0.314259 0.162966 0.000000
0.395558 0.188349 0.000000
0.454279 0.221587 0.000000
0.503454 0.258570 0.000000
0.543837 0.298202 0.000000
0.577803 0.339995 0.000000
0.606052 0.381619 0.000000
0.630040 0.424060 0.000000
0.653132 0.465299 0.000000
0.675408 0.505729 0.000000
0.701798 0.543837 0.000000
0.730918 0.578791 0.000000
0.764105 0.609973 0.000000
0.801402 0.636922 0.000000
0.845894 0.659213 0.000000
0.894512 0.675828 0.000000
0.946260 0.685872 0.000000
1.000000 0.689418 0.000000
0.000000 0.147042 0.000000
0.104277 0.152050 0.000000
0.201567 0.164035 0.000000
0.288857 0.186142 0.000000
0.365747 0.212318 0.000000
0.420838 0.246093 0.000000
0.467367 0.283774 0.000000
0.505729 0.324592 0.000000
0.538303 0.367920 0.000000
0.564621 0.410854 0.000000
0.587217 0.454446 0.000000
0.609657 0.496927 0.000000
0.632080 0.538303 0.000000
0.660005 0.577803 0.000000
0.690999 0.614373 0.000000
0.727056 0.646976 0.000000
0.768270 0.675335 0.000000
0.819580 0.698833 0.000000
0.876179 0.716675 0.000000
0.936678 0.727424 0.000000
1.000000 0.731184 0.000000
0.000000 0.171489 0.000000
0.093619 0.176513 0.000000
0.181461 0.188849 0.000000
0.261294 0.209920 0.000000
0.332374 0.236076 0.000000
0.384354 0.269094 0.000000
0.428506 0.306127 0.000000
0.465299 0.346868 0.000000
0.496927 0.390343 0.000000
0.521918 0.433895 0.000000
0.544019 0.478168 0.000000
0.566105 0.521918 0.000000
0.589146 0.564621 0.000000
0.618381 0.606052 0.000000
0.651456 0.644469 0.000000
0.690434 0.678813 0.000000
0.735339 0.708657 0.000000
0.793215 0.733063 0.000000
0.857410 0.752477 0.000000
0.926790 0.764184 0.000000
1.000000 0.768531 0.000000
0.000000 0.199622 0.000000
0.083272 0.204380 0.000000
0.161887 0.215924 0.000000
0.234167 0.236581 0.000000
0.299117 0.262638 0.000000
0.347531 0.294229 0.000000
0.389109 0.330032 0.000000
0.424060 0.369960 0.000000
0.454446 0.412783 0.000000
0.478168 0.455981 0.000000
0.500000 0.500000 0.000000
0.521832 0.544019 0.000000
0.545554 0.587217 0.000000
0.575940 0.630040 0.000000
0.610891 0.669968 0.000000
0.652469 0.705771 0.000000
0.700883 0.737362 0.000000
0.765833 0.763419 0.000000
0.838113 0.784076 0.000000
0.916728 0.795620 0.000000
1.000000 0.800378 0.000000
0.000000 0.231469 0.000000
0.073210 0.235816 0.000000
0.142590 0.247523 0.000000
0.206785 0.266937 0.000000
0.264661 0.291343 0.000000
0.309566 0.321187 0.000000
0.348544 0.355531 0.000000
0.381619 0.393948 0.000000
0.410854 0.435379 0.000000
0.433895 0.478082 0.000000
0.455981 0.521832 0.000000
0.478082 0.566105 0.000000
0.503073 0.609657 0.000000
0.534701 0.653132 0.000000
0.571494 0.693873 0.000000
0.615646 0.730906 0.000000
0.667626 0.763924 0.000000
0.738706 0.790080 0.000000
0.818539 0.811151 0.000000
0.906381 0.823487 0.000000
1.000000 0.828511 0.000000
0.000000 0.268816 0.000000
0.063322 0.272576 0.000000
0.123821 0.283325 0.000000
0.180420 0.301167 0.000000
0.231730 0.324665 0.000000
0.272944 0.353024 0.000000
0.309001 0.385627 0.000000
0.339995 0.422197 0.000000
0.367920 0.461697 0.000000
0.390343 0.503073 0.000000
0.412783 0.545554 0.000000
0.435379 0.589146 0.000000
0.461697 0.632080 0.000000
0.494271 0.675408 0.000000
0.532633 0.716226 0.000000
0.579162 0.753907 0.000000
0.634253 0.787682 0.000000
0.711143 0.813858 0.000000
0.798433 0.835965 0.000000
0.895723 0.847950 0.000000
1.000000 0.852958 0.000000
0.000000 0.310582 0.000000
0.053740 0.314128 0.000000
0.105488 0.324172 0.000000
0.154106 0.340787 0.000000
0.198598 0.363078 0.000000
0.235895 0.390027 0.000000
0.269082 0.421209 0.000000
0.298202 0.456163 0.000000
0.324592 0.494271 0.000000
0.346868 0.534701 0.000000
0.369960 0.575940 0.000000
0.393948 0.618381 0.000000
0.422197 0.660005 0.000000
0.456163 0.701798 0.000000
0.496546 0.741430 0.000000
0.545721 0.778413 0.000000
0.604442 0.811651 0.000000
0.685741 0.837034 0.000000
0.779652 0.858898 0.000000
0.885725 0.870618 0.000000
1.000000 0.876313 0.000000
0.000000 0.360712 0.000000
0.045098 0.363853 0.000000
0.088810 0.373011 0.000000
0.130059 0.388080 0.000000
0.168294 0.408830 0.000000
0.201338 0.434187 0.000000
0.231504 0.463644 0.000000
0.258570 0.496546 0.000000
0.283774 0.532633 0.000000
0.306127 0.571494 0.000000
0.330032 0.610891 0.000000
0.355531 0.651456 0.000000
0.385627 0.690999 0.000000
0.421209 0.730918 0.000000
0.463644 0.768496 0.000000
0.515525 0.803782 0.000000
0.577664 0.835572 0.000000
0.663078 0.859542 0.000000
0.763189 0.880435 0.000000
0.876953 0.891467 0.000000
1.000000 0.896533 0.000000
0.000000 0.423350 0.000000
0.036825 0.426009 0.000000
0.072778 0.434137 0.000000
0.107048 0.447286 0.000000
0.139463 0.465862 0.000000
0.168637 0.488708 0.000000
0.196218 0.515525 0.000000
0.221587 0.545721 0.000000
0.246093 0.579162 0.000000
0.269094 0.615646 0.000000
0.294229 0.652469 0.000000
0.321187 0.690434 0.000000
0.353024 0.727056 0.000000
0.390027 0.764105 0.000000
0.434187 0.798662 0.000000
0.488708 0.831363 0.000000
0.554453 0.860869 0.000000
0.643079 0.882525 0.000000
0.748385 0.901533 0.000000
0.868938 0.911268 0.000000
1.000000 0.916224 0.000000
0.000000 0.499464 0.000000
0.029354 0.501520 0.000000
0.058303 0.508477 0.000000
0.086238 0.519382 0.000000
0.113324 0.534948 0.000000
0.139131 0.554453 0.000000
0.164428 0.577664 0.000000
0.188349 0.604442 0.000000
0.212318 0.634253 0.000000
0.236076 0.667626 0.000000
0.262638 0.700883 0.000000
0.291343 0.735339 0.000000
0.324665 0.768270 0.000000
0.363078 0.801402 0.000000
0.408830 0.831706 0.000000
0.465862 0.860537 0.000000
0.534948 0.886676 0.000000
0.626311 0.905294 0.000000
0.736359 0.921762 0.000000
0.862474 0.929857 0.000000
1.000000 0.933457 0.000000
0.000000 0.593828 0.000000
0.024159 0.596070 0.000000
0.048105 0.602538 0.000000
0.071482 0.612444 0.000000
0.094706 0.626311 0.000000
0.117475 0.643079 0.000000
0.140458 0.663078 0.000000
0.162966 0.685741 0.000000
0.186142 0.711143 0.000000
[...]
POINT_DATA 2205 
VECTORS pos float 
0.000000 0.000000 0.000000
0.151404 0.000000 0.000000
0.288865 0.000000 0.000000
0.406172 0.000000 0.000000
0.500536 0.000000 0.000000
0.576650 0.000000 0.000000
0.639288 0.000000 0.000000
0.689418 0.000000 0.000000
0.731184 0.000000 0.000000
0.768531 0.000000 0.000000
0.800378 0.000000 0.000000
0.828511 0.000000 0.000000
0.852958 0.000000 0.000000
0.876313 0.000000 0.000000
0.896533 0.000000 0.000000
0.916224 0.000000 0.000000
0.933457 0.000000 0.000000
0.951031 0.000000 0.000000
0.967795 0.000000 0.000000
0.983864 0.000000 0.000000
1.000000 0.000000 0.000000
0.000000 0.016136 0.000000
0.150288 0.017090 0.000000
0.286735 0.019520 0.000000
0.403930 0.024159 0.000000
0.498480 0.029354 0.000000
0.573991 0.036825 0.000000
0.636147 0.045098 0.000000
0.685872 0.053740 0.000000
0.727424 0.063322 0.000000
0.764184 0.073210 0.000000
0.795620 0.083272 0.000000
0.823487 0.093619 0.000000
0.847950 0.104277 0.000000
0.870618 0.114275 0.000000
0.891467 0.123047 0.000000
0.911268 0.131062 0.000000
0.929857 0.137526 0.000000
0.947990 0.143066 0.000000
0.965564 0.147343 0.000000
0.982910 0.150288 0.000000
1.000000 0.151404 0.000000
0.000000 0.032205 0.000000
0.147343 0.034436 0.000000
0.281436 0.039098 0.000000
0.397462 0.048105 0.000000
0.491523 0.058303 0.000000
0.565863 0.072778 0.000000
0.626989 0.088810 0.000000
0.675828 0.105488 0.000000
0.716675 0.123821 0.000000
0.752477 0.142590 0.000000
0.784076 0.161887 0.000000
0.811151 0.181461 0.000000
0.835965 0.201567 0.000000
0.858898 0.220348 0.000000
0.880435 0.236811 0.000000
0.901533 0.251615 0.000000
0.921762 0.263641 0.000000
0.941454 0.273898 0.000000
0.960902 0.281436 0.000000
0.980480 0.286735 0.000000
1.000000 0.288865 0.000000
0.000000 0.048969 0.000000
0.143066 0.052010 0.000000
0.273898 0.058546 0.000000
0.387556 0.071482 0.000000
0.480618 0.086238 0.000000
0.552714 0.107048 0.000000
0.611920 0.130059 0.000000
0.659213 0.154106 0.000000
0.698833 0.180420 0.000000
0.733063 0.206785 0.000000
0.763419 0.234167 0.000000
0.790080 0.261294 0.000000
0.813858 0.288857 0.000000
0.837034 0.314259 0.000000
0.859542 0.336922 0.000000
0.882525 0.356921 0.000000
0.905294 0.373689 0.000000
0.928518 0.387556 0.000000
0.951895 0.397462 0.000000
0.975841 0.403930 0.000000
1.000000 0.406172 0.000000
0.000000 0.066543 0.000000
0.137526 0.070143 0.000000
0.263641 0.078238 0.000000
0.373689 0.094706 0.000000
0.465052 0.113324 0.000000
0.534138 0.139463 0.000000
0.591170 0.168294 0.000000
0.636922 0.198598 0.000000
0.675335 0.231730 0.000000
0.708657 0.264661 0.000000
0.737362 0.299117 0.000000
0.763924 0.332374 0.000000
0.787682 0.365747 0.000000
0.811651 0.395558 0.000000
0.835572 0.422336 0.000000
0.860869 0.445547 0.000000
0.886676 0.465052 0.000000
0.913762 0.480618 0.000000
0.941697 0.491523 0.000000
0.970646 0.498480 0.000000
1.000000 0.500536 0.000000
0.000000 0.083776 0.000000
0.131062 0.088732 0.000000
0.251615 0.098467 0.000000
0.356921 0.117475 0.000000
0.445547 0.139131 0.000000
0.511292 0.168637 0.000000
0.565813 0.201338 0.000000
0.609973 0.235895 0.000000
0.646976 0.272944 0.000000
0.678813 0.309566 0.000000
0.705771 0.347531 0.000000
0.730906 0.384354 0.000000
0.753907 0.420838 0.000000
0.778413 0.454279 0.000000
0.803782 0.484475 0.000000
0.831363 0.511292 0.000000
0.860537 0.534138 0.000000
0.892952 0.552714 0.000000
0.927222 0.565863 0.000000
0.963175 0.573991 0.000000
1.000000 0.576650 0.000000
0.000000 0.103467 0.000000
0.123047 0.108533 0.000000
0.236811 0.119565 0.000000
0.336922 0.140458 0.000000
0.422336 0.164428 0.000000
0.484475 0.196218 0.000000
0.536356 0.231504 0.000000
0.578791 0.269082 0.000000
0.614373 0.309001 0.000000
0.644469 0.348544 0.000000
0.669968 0.389109 0.000000
0.693873 0.428506 0.000000
0.716226 0.467367 0.000000
0.741430 0.503454 0.000000
0.768496 0.536356 0.000000
0.798662 0.565813 0.000000
0.831706 0.591170 0.000000
0.869941 0.611920 0.000000
0.911190 0.626989 0.000000
0.954902 0.636147 0.000000
1.000000 0.639288 0.000000
0.000000 0.123687 0.000000
0.114275 0.129382 0.000000
0.220348 0.141102 0.000000
0.314259 0.162966 0.000000
0.395558 0.188349 0.000000
0.454279 0.221587 0.000000
0.503454 0.258570 0.000000
0.543837 0.298202 0.000000
0.577803 0.339995 0.000000
0.606052 0.381619 0.000000
0.630040 0.424060 0.000000
0.653132 0.465299 0.000000
0.675408 0.505729 0.000000
0.701798 0.543837 0.000000
0.730918 0.578791 0.000000
0.764105 0.609973 0.000000
0.801402 0.636922 0.000000
0.845894 0.659213 0.000000
0.894512 0.675828 0.000000
0.946260 0.685872 0.000000
1.000000 0.689418 0.000000
0.000000 0.147042 0.000000
0.104277 0.152050 0.000000
0.201567 0.164035 0.000000
0.288857 0.186142 0.000000
0.365747 0.212318 0.000000
0.420838 0.246093 0.000000
0.467367 0.283774 0.000000
0.505729 0.324592 0.000000
0.538303 0.367920 0.000000
0.564621 0.410854 0.000000
0.587217 0.454446 0.000000
0.609657 0.496927 0.000000
0.632080 0.538303 0.000000
0.660005 0.577803 0.000000
0.690999 0.614373 0.000000
0.727056 0.646976 0.000000
0.768270 0.675335 0.000000
0.819580 0.698833 0.000000
0.876179 0.716675 0.000000
0.936678 0.727424 0.000000
1.000000 0.731184 0.000000
0.000000 0.171489 0.000000
0.093619 0.176513 0.000000
0.181461 0.188849 0.000000
0.261294 0.209920 0.000000
0.332374 0.236076 0.000000
0.384354 0.269094 0.000000
0.428506 0.306127 0.000000
0.465299 0.346868 0.000000
0.496927 0.390343 0.000000
0.521918 0.433895 0.000000
0.544019 0.478168 0.000000
0.566105 0.521918 0.000000
0.589146 0.564621 0.000000
0.618381 0.606052 0.000000
0.651456 0.644469 0.000000
0.690434 0.678813 0.000000
0.735339 0.708657 0.000000
0.793215 0.733063 0.000000
0.857410 0.752477 0.000000
0.926790 0.764184 0.000000
1.000000 0.768531 0.000000
0.000000 0.199622 0.000000
0.083272 0.204380 0.000000
0.161887 0.215924 0.000000
0.234167 0.236581 0.000000
0.299117 0.262638 0.000000
0.347531 0.294229 0.000000
0.389109 0.330032 0.000000
0.424060 0.369960 0.000000
0.454446 0.412783 0.000000
0.478168 0.455981 0.000000
0.500000 0.500000 0.000000
0.521832 0.544019 0.000000
0.545554 0.587217 0.000000
0.575940 0.630040 0.000000
0.610891 0.669968 0.000000
0.652469 0.705771 0.000000
0.700883 0.737362 0.000000
0.765833 0.763419 0.000000
0.838113 0.784076 0.000000
0.916728 0.795620 0.000000
1.000000 0.800378 0.000000
0.000000 0.231469 0.000000
0.073210 0.235816 0.000000
0.142590 0.247523 0.000000
0.206785 0.266937 0.000000
0.264661 0.291343 0.000000
0.309566 0.321187 0.000000
0.348544 0.355531 0.000000
0.381619 0.393948 0.000000
0.410854 0.435379 0.000000
0.433895 0.478082 0.000000
0.455981 0.521832 0.000000
0.478082 0.566105 0.000000
0.503073 0.609657 0.000000
0.534701 0.653132 0.000000
0.571494 0.693873 0.000000
0.615646 0.730906 0.000000
0.667626 0.763924 0.000000
0.738706 0.790080 0.000000
0.818539 0.811151 0.000000
0.906381 0.823487 0.000000
1.000000 0.828511 0.000000
0.000000 0.268816 0.000000
0.063322 0.272576 0.000000
0.123821 0.283325 0.000000
0.180420 0.301167 0.000000
0.231730 0.324665 0.000000
0.272944 0.353024 0.000000
0.309001 0.385627 0.000000
0.339995 0.422197 0.000000
0.367920 0.461697 0.000000
0.390343 0.503073 0.000000
0.412783 0.545554 0.000000
0.435379 0.589146 0.000000
0.461697 0.632080 0.000000
0.494271 0.675408 0.000000
0.532633 0.716226 0.000000
0.579162 0.753907 0.000000
0.634253 0.787682 0.000000
0.711143 0.813858 0.000000
0.798433 0.835965 0.000000
0.895723 0.847950 0.000000
1.000000 0.852958 0.000000
0.000000 0.310582 0.000000
0.053740 0.314128 0.000000
0.105488 0.324172 0.000000
0.154106 0.340787 0.000000
0.198598 0.363078 0.000000
0.235895 0.390027 0.000000
0.269082 0.421209 0.000000
0.298202 0.456163 0.000000
0.324592 0.494271 0.000000
0.346868 0.534701 0.000000
0.369960 0.575940 0.000000
0.393948 0.618381 0.000000
0.422197 0.660005 0.000000
0.456163 0.701798 0.000000
0.496546 0.741430 0.000000
0.545721 0.778413 0.000000
0.604442 0.811651 0.000000
0.685741 0.837034 0.000000
0.779652 0.858898 0.000000
0.885725 0.870618 0.000000
1.000000 0.876313 0.000000
0.000000 0.360712 0.000000
0.045098 0.363853 0.000000
0.088810 0.373011 0.000000
0.130059 0.388080 0.000000
0.168294 0.408830 0.000000
0.201338 0.434187 0.000000
0.231504 0.463644 0.000000
0.258570 0.496546 0.000000
0.283774 0.532633 0.000000
0.306127 0.571494 0.000000
0.330032 0.610891 0.000000
0.355531 0.651456 0.000000
0.385627 0.690999 0.000000
0.421209 0.730918 0.000000
0.463644 0.768496 0.000000
0.515525 0.803782 0.000000
0.577664 0.835572 0.000000
0.663078 0.859542 0.000000
0.763189 0.880435 0.000000
0.876953 0.891467 0.000000
1.000000 0.896533 0.000000
0.000000 0.423350 0.000000
0.036825 0.426009 0.000000
0.072778 0.434137 0.000000
0.107048 0.447286 0.000000
0.139463 0.465862 0.000000
0.168637 0.488708 0.000000
0.196218 0.515525 0.000000
0.221587 0.545721 0.000000
0.246093 0.579162 0.000000
0.269094 0.615646 0.000000
0.294229 0.652469 0.000000
0.321187 0.690434 0.000000
0.353024 0.727056 0.000000
0.390027 0.764105 0.000000
0.434187 0.798662 0.000000
0.488708 0.831363 0.000000
0.554453 0.860869 0.000000
0.643079 0.882525 0.000000
0.748385 0.901533 0.000000
0.868938 0.911268 0.000000
1.000000 0.916224 0.000000
0.000000 0.499464 0.000000
0.029354 0.501520 0.000000
0.058303 0.508477 0.000000
0.086238 0.519382 0.000000
0.113324 0.534948 0.000000
0.139131 0.554453 0.000000
0.164428 0.577664 0.000000
0.188349 0.604442 0.000000
0.212318 0.634253 0.000000
0.236076 0.667626 0.000000
0.262638 0.700883 0.000000
0.291343 0.735339 0.000000
0.324665 0.768270 0.000000
0.363078 0.801402 0.000000
0.408830 0.831706 0.000000
0.465862 0.860537 0.000000
0.534948 0.886676 0.000000
0.626311 0.905294 0.000000
0.736359 0.921762 0.000000
0.862474 0.929857 0.000000
1.000000 0.933457 0.000000
0.000000 0.593828 0.000000
0.024159 0.596070 0.000000
0.048105 0.602538 0.000000
0.071482 0.612444 0.000000
0.094706 0.626311 0.000000
0.117475 0.643079 0.000000
0.140458 0.663078 0.000000
0.162966 0.685741 0.000000
0.186142 0.711143 0.000000
0.209920 0.738706 0.000000
0.236581 0.765833 0.000000
0.266937 0.793215 0.000000
0.301167 0.819580 0.000000
0.340787 0.845894 0.000000
0.388080 0.869941 0.000000
0.447286 0.892952 0.000000
0.519382 0.913762 0.000000
0.612444 0.928518 0.000000
0.726102 0.941454 0.000000
0.856934 0.947990 0.000000
1.000000 0.951031 0.000000
0.000000 0.711135 0.000000
0.019520 0.713265 0.000000
0.039098 0.718564 0.000000
0.058546 0.726102 0.000000
0.078238 0.736359 0.000000
0.098467 0.748385 0.000000
0.119565 0.763189 0.000000
0.141102 0.779652 0.000000
0.164035 0.798433 0.000000
0.188849 0.818539 0.000000
0.215924 0.838113 0.000000
0.247523 0.857410 0.000000
0.283325 0.876179 0.000000
0.324172 0.894512 0.000000
0.373011 0.911190 0.000000
0.434137 0.927222 0.000000
0.508477 0.941697 0.000000
0.602538 0.951895 0.000000
0.718564 0.960902 0.000000
0.852657 0.965564 0.000000
1.000000 0.967795 0.000000
0.000000 0.848596 0.000000
0.017090 0.849712 0.000000
0.034436 0.852657 0.000000
0.052010 0.856934 0.000000
0.070143 0.862474 0.000000
0.088732 0.868938 0.000000
0.108533 0.876953 0.000000
0.129382 0.885725 0.000000
0.152050 0.895723 0.000000
0.176513 0.906381 0.000000
0.204380 0.916728 0.000000
0.235816 0.926790 0.000000
0.272576 0.936678 0.000000
0.314128 0.946260 0.000000
0.363853 0.954902 0.000000
0.426009 0.963175 0.000000
0.501520 0.970646 0.000000
0.596070 0.975841 0.000000
0.713265 0.980480 0.000000
0.849712 0.982910 0.000000
1.000000 0.983864 0.000000
0.000000 1.000000 0.000000
0.016136 1.000000 0.000000
0.032205 1.000000 0.000000
0.048969 1.000000 0.000000
0.066543 1.000000 0.000000
0.083776 1.000000 0.000000
0.103467 1.000000 0.000000
0.123687 1.000000 0.000000
0.147042 1.000000 0.000000
0.171489 1.000000 0.000000
0.199622 1.000000 0.000000
0.231469 1.000000 0.000000
0.268816 1.000000 0.000000
0.310582 1.000000 0.000000
0.360712 1.000000 0.000000
0.423350 1.000000 0.000000
0.499464 1.000000 0.000000
0.593828 1.000000 0.000000
0.711135 1.000000 0.000000
0.848596 1.000000 0.000000
1.000000 1.000000 0.000000
0.000000 0.000000 0.082500
0.151404 0.000000 0.082500
0.288865 0.000000 0.082500
0.406172 0.000000 0.082500
0.500536 0.000000 0.082500
0.576650 0.000000 0.082500
0.639288 0.000000 0.082500
0.689418 0.000000 0.082500
0.731184 0.000000 0.082500
0.768531 0.000000 0.082500
0.800378 0.000000 0.082500
0.828511 0.000000 0.082500
0.852958 0.000000 0.082500
0.876313 0.000000 0.082500
0.896533 0.000000 0.082500
0.916224 0.000000 0.082500
0.933457 0.000000 0.082500
0.951031 0.000000 0.082500
0.967795 0.000000 0.082500
0.983864 0.000000 0.082500
1.000000 0.000000 0.082500
0.000000 0.016136 0.082500
0.150288 0.017090 0.082500
0.286735 0.019520 0.082500
0.403930 0.024159 0.082500
0.498480 0.029354 0.082500
0.573991 0.036825 0.082500
0.636147 0.045098 0.082500
0.685872 0.053740 0.082500
0.727424 0.063322 0.082500
0.764184 0.073210 0.082500
0.795620 0.083272 0.082500
0.823487 0.093619 0.082500
0.847950 0.104277 0.082500
0.870618 0.114275 0.082500
0.891467 0.123047 0.082500
0.911268 0.131062 0.082500
0.929857 0.137526 0.082500
0.947990 0.143066 0.082500
0.965564 0.147343 0.082500
0.982910 0.150288 0.082500
1.000000 0.151404 0.082500
0.000000 0.032205 0.082500
0.147343 0.034436 0.082500
0.281436 0.039098 0.082500
0.397462 0.048105 0.082500
0.491523 0.058303 0.082500
0.565863 0.072778 0.082500
0.626989 0.088810 0.082500
0.675828 0.105488 0.082500
0.716675 0.123821 0.082500
0.752477 0.142590 0.082500
0.784076 0.161887 0.082500
0.811151 0.181461 0.082500
0.835965 0.201567 0.082500
0.858898 0.220348 0.082500
0.880435 0.236811 0.082500
0.901533 0.251615 0.082500
0.921762 0.263641 0.082500
0.941454 0.273898 0.082500
0.960902 0.281436 0.082500
0.980480 0.286735 0.082500
1.000000 0.288865 0.082500
0.000000 0.048969 0.082500
0.143066 0.052010 0.082500
0.273898 0.058546 0.082500
0.387556 0.071482 0.082500
0.480618 0.086238 0.082500
0.552714 0.107048 0.082500
0.611920 0.130059 0.082500
0.659213 0.154106 0.082500
0.698833 0.180420 0.082500
0.733063 0.206785 0.082500
0.763419 0.234167 0.082500
0.790080 0.261294 0.082500
0.813858 0.288857 0.082500
0.837034 0.314259 0.082500
0.859542 0.336922 0.082500
0.882525 0.356921 0.082500
0.905294 0.373689 0.082500
0.928518 0.387556 0.082500
0.951895 0.397462 0.082500
0.975841 0.403930 0.082500
1.000000 0.406172 0.082500
0.000000 0.066543 0.082500
0.137526 0.070143 0.082500
0.263641 0.078238 0.082500
0.373689 0.094706 0.082500
0.465052 0.113324 0.082500
0.534138 0.139463 0.082500
0.591170 0.168294 0.082500
0.636922 0.198598 0.082500
0.675335 0.231730 0.082500
0.708657 0.264661 0.082500
0.737362 0.299117 0.082500
0.763924 0.332374 0.082500
0.787682 0.365747 0.082500
0.811651 0.395558 0.082500
0.835572 0.422336 0.082500
0.860869 0.445547 0.082500
0.886676 0.465052 0.082500
0.913762 0.480618 0.082500
0.941697 0.491523 0.082500
0.970646 0.498480 0.082500
1.000000 0.500536 0.082500
0.000000 0.083776 0.082500
0.131062 0.088732 0.082500
0.251615 0.098467 0.082500
0.356921 0.117475 0.082500
0.445547 0.139131 0.082500
0.511292 0.168637 0.082500
0.565813 0.201338 0.082500
0.609973 0.235895 0.082500
0.646976 0.272944 0.082500
0.678813 0.309566 0.082500
0.705771 0.347531 0.082500
0.730906 0.384354 0.082500
0.753907 0.420838 0.082500
0.778413 0.454279 0.082500
0.803782 0.484475 0.082500
0.831363 0.511292 0.082500
0.860537 0.534138 0.082500
0.892952 0.552714 0.082500
0.927222 0.565863 0.082500
0.963175 0.573991 0.082500
1.000000 0.576650 0.082500
0.000000 0.103467 0.082500
0.123047 0.108533 0.082500
0.236811 0.119565 0.082500
0.336922 0.140458 0.082500
0.422336 0.164428 0.082500
0.484475 0.196218 0.082500
0.536356 0.231504 0.082500
0.578791 0.269082 0.082500
0.614373 0.309001 0.082500
0.644469 0.348544 0.082500
0.669968 0.389109 0.082500
0.693873 0.428506 0.082500
0.716226 0.467367 0.082500
0.741430 0.503454 0.082500
0.768496 0.536356 0.082500
0.798662 0.565813 0.082500
0.831706 0.591170 0.082500
0.869941 0.611920 0.082500
0.911190 0.626989 0.082500
0.954902 0.636147 0.082500
1.000000 0.639288 0.082500
0.000000 0.123687 0.082500
0.114275 0.129382 0.082500
0.220348 0.141102 0.082500
0.314259 0.162966 0.082500
0.395558 0.188349 0.082500
0.454279 0.221587 0.082500
0.503454 0.258570 0.082500
0.543837 0.298202 0.082500
0.577803 0.339995 0.082500
0.606052 0.381619 0.082500
0.630040 0.424060 0.082500
0.653132 0.465299 0.082500
0.675408 0.505729 0.082500
0.701798 0.543837 0.082500
0.730918 0.578791 0.082500
0.764105 0.609973 0.082500
0.801402 0.636922 0.082500
0.845894 0.659213 0.082500
0.894512 0.675828 0.082500
0.946260 0.685872 0.082500
1.000000 0.689418 0.082500
0.000000 0.147042 0.082500
0.104277 0.152050 0.082500
0.201567 0.164035 0.082500
0.288857 0.186142 0.082500
0.365747 0.212318 0.082500
0.420838 0.246093 0.082500
0.467367 0.283774 0.082500
0.505729 0.324592 0.082500
0.538303 0.367920 0.082500
0.564621 0.410854 0.082500
0.587217 0.454446 0.082500
0.609657 0.496927 0.082500
0.632080 0.538303 0.082500
0.660005 0.577803 0.082500
0.690999 0.614373 0.082500
0.727056 0.646976 0.082500
0.768270 0.675335 0.082500
0.819580 0.698833 0.082500
0.876179 0.716675 0.082500
0.936678 0.727424 0.082500
1.000000 0.731184 0.082500
0.000000 0.171489 0.082500
0.093619 0.176513 0.082500
0.181461 0.188849 0.082500
0.261294 0.209920 0.082500
0.332374 0.236076 0.082500
0.384354 0.269094 0.082500
0.428506 0.306127 0.082500
0.465299 0.346868 0.082500
0.496927 0.390343 0.082500
0.521918 0.433895 0.082500
0.544019 0.478168 0.082500
0.566105 0.521918 0.082500
0.589146 0.564621 0.082500
0.618381 0.606052 0.082500
0.651456 0.644469 0.082500
0.690434 0.678813 0.082500
0.735339 0.708657 0.082500
0.793215 0.733063 0.082500
0.857410 0.752477 0.082500
0.926790 0.764184 0.082500
1.000000 0.768531 0.082500
0.000000 0.199622 0.082500
0.083272 0.204380 0.082500
0.161887 0.215924 0.082500
0.234167 0.236581 0.082500
0.299117 0.262638 0.082500
0.347531 0.294229 0.082500
0.389109 0.330032 0.082500
0.424060 0.369960 0.082500
0.454446 0.412783 0.082500
0.478168 0.455981 0.082500
0.500000 0.500000 0.082500
0.521832 0.544019 0.082500
0.545554 0.587217 0.082500
0.575940 0.630040 0.082500
0.610891 0.669968 0.082500
0.652469 0.705771 0.082500
0.700883 0.737362 0.082500
0.765833 0.763419 0.082500
0.838113 0.784076 0.082500
0.916728 0.795620 0.082500
1.000000 0.800378 0.082500
0.000000 0.231469 0.082500
0.073210 0.235816 0.082500
0.142590 0.247523 0.082500
0.206785 0.266937 0.082500
0.264661 0.291343 0.082500
0.309566 0.321187 0.082500
0.348544 0.355531 0.082500
0.381619 0.393948 0.082500
0.410854 0.435379 0.082500
0.433895 0.478082 0.082500
0.455981 0.521832 0.082500
0.478082 0.566105 0.082500
0.503073 0.609657 0.082500
0.534701 0.653132 0.082500
0.571494 0.693873 0.082500
0.615646 0.730906 0.082500
0.667626 0.763924 0.082500
0.738706 0.790080 0.082500
0.818539 0.811151 0.082500
0.906381 0.823487 0.082500
1.000000 0.828511 0.082500
0.000000 0.268816 0.082500
0.063322 0.272576 0.082500
0.123821 0.283325 0.082500
0.180420 0.301167 0.082500
0.231730 0.324665 0.082500
0.272944 0.353024 0.082500
0.309001 0.385627 0.082500
0.339995 0.422197 0.082500
0.367920 0.461697 0.082500
0.390343 0.503073 0.082500
0.412783 0.545554 0.082500
0.435379 0.589146 0.082500
0.461697 0.632080 0.082500
0.494271 0.675408 0.082500
0.532633 0.716226 0.082500
0.579162 0.753907 0.082500
0.634253 0.787682 0.082500
0.711143 0.813858 0.082500
0.798433 0.835965 0.082500
0.895723 0.847950 0.082500
1.000000 0.852958 0.082500
0.000000 0.310582 0.082500
0.053740 0.314128 0.082500
0.105488 0.324172 0.082500
0.154106 0.340787 0.082500
0.198598 0.363078 0.082500
0.235895 0.390027 0.082500
0.269082 0.421209 0.082500
0.298202 0.456163 0.082500
0.324592 0.494271 0.082500
0.346868 0.534701 0.082500
0.369960 0.575940 0.082500
0.393948 0.618381 0.082500
0.422197 0.660005 0.082500
0.456163 0.701798 0.082500
0.496546 0.741430 0.082500
0.545721 0.778413 0.082500
0.604442 0.811651 0.082500
0.685741 0.837034 0.082500
0.779652 0.858898 0.082500
0.885725 0.870618 0.082500
1.000000 0.876313 0.082500
0.000000 0.360712 0.082500
0.045098 0.363853 0.082500
0.088810 0.373011 0.082500
0.130059 0.388080 0.082500