# vtk DataFile Version 2.0
Mesh for Fierro
ASCII 
DATASET UNSTRUCTURED_GRID

POINTS 2205 float
0.000000 0.000000 0.000000
0.533215 0.000000 0.000000
0.921717 0.000000 0.000000
0.959824 0.000000 0.000000
0.967058 0.000000 0.000000
0.972607 0.000000 0.000000
0.976986 0.000000 0.000000
0.981533 0.000000 0.000000
0.985224 0.000000 0.000000
0.987897 0.000000 0.000000
0.989333 0.000000 0.000000
0.989724 0.000000 0.000000
0.990201 0.000000 0.000000
0.990576 0.000000 0.000000
0.990993 0.000000 0.000000
0.991463 0.000000 0.000000
0.991852 0.000000 0.000000
0.992575 0.000000 0.000000
0.994693 0.000000 0.000000
0.998317 0.000000 0.000000
1.000000 0.000000 0.000000
0.000000 0.001683 0.000000
0.591460 0.004969 0.000000
0.936345 0.050696 0.000000
0.925217 0.193261 0.000000
0.933310 0.245415 0.000000
0.937047 0.317006 0.000000
0.939665 0.375744 0.000000
0.938413 0.453135 0.000000
0.936844 0.535231 0.000000
0.938617 0.590191 0.000000
0.940368 0.646744 0.000000
0.943836 0.680170 0.000000
0.948373 0.698358 0.000000
0.952162 0.721027 0.000000
0.956551 0.736585 0.000000
0.962244 0.741710 0.000000
0.968579 0.740219 0.000000
0.976531 0.719766 0.000000
0.986460 0.669738 0.000000
0.995031 0.591460 0.000000
1.000000 0.533215 0.000000
0.000000 0.005307 0.000000
0.669738 0.013540 0.000000
0.931012 0.106151 0.000000
0.891886 0.283787 0.000000
0.918064 0.355455 0.000000
0.912415 0.512816 0.000000
0.905011 0.626667 0.000000
0.902858 0.716749 0.000000
0.896052 0.773153 0.000000
0.886877 0.795926 0.000000
0.866291 0.804324 0.000000
0.854408 0.812322 0.000000
0.849795 0.824833 0.000000
0.845868 0.836975 0.000000
0.843099 0.849897 0.000000
0.843049 0.865223 0.000000
0.846641 0.881633 0.000000
0.860855 0.905164 0.000000
0.893849 0.931012 0.000000
0.949304 0.936345 0.000000
1.000000 0.921717 0.000000
0.000000 0.007425 0.000000
0.719766 0.023469 0.000000
0.905164 0.139145 0.000000
0.889022 0.349809 0.000000
0.890933 0.504165 0.000000
0.876504 0.608906 0.000000
0.862284 0.687662 0.000000
0.835703 0.727326 0.000000
0.792572 0.749174 0.000000
0.743879 0.769263 0.000000
0.683091 0.796130 0.000000
0.649494 0.817490 0.000000
0.640501 0.832366 0.000000
0.634129 0.847118 0.000000
0.628877 0.860610 0.000000
0.624838 0.872573 0.000000
0.627877 0.882916 0.000000
0.650191 0.889022 0.000000
0.716213 0.891886 0.000000
0.806739 0.925217 0.000000
1.000000 0.959824 0.000000
0.000000 0.008148 0.000000
0.740219 0.031421 0.000000
0.881633 0.153359 0.000000
0.882916 0.372123 0.000000
0.849731 0.543189 0.000000
0.844243 0.619876 0.000000
0.807414 0.703271 0.000000
0.728550 0.736065 0.000000
0.657228 0.760262 0.000000
0.612374 0.780566 0.000000
0.565141 0.788510 0.000000
0.513406 0.781817 0.000000
0.496638 0.793832 0.000000
0.474465 0.798836 0.000000
0.460282 0.807996 0.000000
0.454251 0.825208 0.000000
0.456811 0.849731 0.000000
0.495835 0.890933 0.000000
0.644545 0.918064 0.000000
0.754585 0.933310 0.000000
1.000000 0.967058 0.000000
0.000000 0.008537 0.000000
0.741710 0.037756 0.000000
0.865223 0.156951 0.000000
0.872573 0.375162 0.000000
0.825208 0.545749 0.000000
0.807886 0.636670 0.000000
0.766303 0.700059 0.000000
0.681077 0.720061 0.000000
0.612150 0.733776 0.000000
0.557931 0.743283 0.000000
0.498063 0.735717 0.000000
0.444653 0.732217 0.000000
0.399411 0.733031 0.000000
0.370780 0.747613 0.000000
0.357133 0.772655 0.000000
0.363330 0.807886 0.000000
0.380124 0.844243 0.000000
0.391094 0.876504 0.000000
0.487184 0.912415 0.000000
0.682994 0.937047 0.000000
1.000000 0.972607 0.000000
0.000000 0.009007 0.000000
0.736585 0.043449 0.000000
0.849897 0.156901 0.000000
0.860610 0.371123 0.000000
0.807996 0.539718 0.000000
0.772655 0.642867 0.000000
0.711840 0.688493 0.000000
0.634702 0.696122 0.000000
0.567211 0.699872 0.000000
0.510904 0.698914 0.000000
0.456787 0.687267 0.000000
0.411972 0.681687 0.000000
0.373707 0.675876 0.000000
0.339138 0.687927 0.000000
0.311507 0.711840 0.000000
0.299941 0.766303 0.000000
0.296729 0.807414 0.000000
0.312338 0.862284 0.000000
0.373333 0.905011 0.000000
0.624256 0.939665 0.000000
1.000000 0.976986 0.000000
0.000000 0.009424 0.000000
0.721027 0.047838 0.000000
0.836975 0.154132 0.000000
0.847118 0.365871 0.000000
0.798836 0.525535 0.000000
0.747613 0.629220 0.000000
0.687927 0.660862 0.000000
0.615951 0.663855 0.000000
0.551169 0.661881 0.000000
0.496084 0.653420 0.000000
0.448205 0.633615 0.000000
0.407742 0.619173 0.000000
0.371072 0.607656 0.000000
0.336145 0.615951 0.000000
0.303878 0.634702 0.000000
0.279939 0.681077 0.000000
0.263935 0.728550 0.000000
0.272674 0.835703 0.000000
0.283251 0.902858 0.000000
0.546865 0.938413 0.000000
1.000000 0.981533 0.000000
0.000000 0.009799 0.000000
0.698358 0.051627 0.000000
0.824833 0.150205 0.000000
0.832366 0.359499 0.000000
0.793832 0.503362 0.000000
0.733031 0.600589 0.000000
0.675876 0.626293 0.000000
0.607656 0.628928 0.000000
0.547102 0.620581 0.000000
0.499743 0.606080 0.000000
0.458348 0.585110 0.000000
0.417298 0.563496 0.000000
0.379419 0.547102 0.000000
0.338119 0.551169 0.000000
0.300128 0.567211 0.000000
0.266224 0.612150 0.000000
0.239738 0.657228 0.000000
0.250826 0.792572 0.000000
0.226847 0.896052 0.000000
0.464769 0.936844 0.000000
1.000000 0.985224 0.000000
0.000000 0.010276 0.000000
0.680170 0.056164 0.000000
0.812322 0.145592 0.000000
0.817490 0.350506 0.000000
0.781817 0.486594 0.000000
0.732217 0.555347 0.000000
0.681687 0.588028 0.000000
0.619173 0.592258 0.000000
0.563496 0.582702 0.000000
0.517273 0.563709 0.000000
0.475385 0.540188 0.000000
0.436291 0.517273 0.000000
0.393920 0.499743 0.000000
0.346580 0.496084 0.000000
0.301086 0.510904 0.000000
0.256717 0.557931 0.000000
0.219434 0.612374 0.000000
0.230737 0.743879 0.000000
0.204074 0.886877 0.000000
0.409809 0.938617 0.000000
1.000000 0.987897 0.000000
0.000000 0.010667 0.000000
0.646744 0.059632 0.000000
0.804324 0.133709 0.000000
0.796130 0.316909 0.000000
0.788510 0.434859 0.000000
0.735717 0.501937 0.000000
0.687267 0.543213 0.000000
0.633615 0.551795 0.000000
0.585110 0.541652 0.000000
0.540188 0.524615 0.000000
0.500000 0.500000 0.000000
0.459812 0.475385 0.000000
0.414890 0.458348 0.000000
0.366385 0.448205 0.000000
0.312733 0.456787 0.000000
0.264283 0.498063 0.000000
0.211490 0.565141 0.000000
0.203870 0.683091 0.000000
0.195676 0.866291 0.000000
0.353256 0.940368 0.000000
1.000000 0.989333 0.000000
0.000000 0.012103 0.000000
0.590191 0.061383 0.000000
0.795926 0.113123 0.000000
0.769263 0.256121 0.000000
0.780566 0.387626 0.000000
0.743283 0.442069 0.000000
0.698914 0.489096 0.000000
0.653420 0.503916 0.000000
0.606080 0.500257 0.000000
0.563709 0.482727 0.000000
0.524615 0.459812 0.000000
0.482727 0.436291 0.000000
0.436504 0.417298 0.000000
0.380827 0.407742 0.000000
0.318313 0.411972 0.000000
0.267783 0.444653 0.000000
0.218183 0.513406 0.000000
0.182510 0.649494 0.000000
0.187678 0.854408 0.000000
0.319830 0.943836 0.000000
1.000000 0.989724 0.000000
0.000000 0.014776 0.000000
0.535231 0.063156 0.000000
0.773153 0.103948 0.000000
0.749174 0.207428 0.000000
0.760262 0.342772 0.000000
0.733776 0.387850 0.000000
0.699872 0.432789 0.000000
0.661881 0.448831 0.000000
0.620581 0.452898 0.000000
0.582702 0.436504 0.000000
0.541652 0.414890 0.000000
0.500257 0.393920 0.000000
0.452898 0.379419 0.000000
0.392344 0.371072 0.000000
0.324124 0.373707 0.000000
0.266969 0.399411 0.000000
0.206168 0.496638 0.000000
0.167634 0.640501 0.000000
0.175167 0.849795 0.000000
0.301642 0.948373 0.000000
1.000000 0.990201 0.000000
0.000000 0.018467 0.000000
0.453135 0.061587 0.000000
0.716749 0.097142 0.000000
0.727326 0.164297 0.000000
0.736065 0.271450 0.000000
0.720061 0.318923 0.000000
0.696122 0.365298 0.000000
0.663855 0.384049 0.000000
0.628928 0.392344 0.000000
0.592258 0.380827 0.000000
0.551795 0.366385 0.000000
0.503916 0.346580 0.000000
0.448831 0.338119 0.000000
0.384049 0.336145 0.000000
0.312073 0.339138 0.000000
0.252387 0.370780 0.000000
0.201164 0.474465 0.000000
0.152882 0.634129 0.000000
0.163025 0.845868 0.000000
0.278973 0.952162 0.000000
1.000000 0.990576 0.000000
0.000000 0.023014 0.000000
0.375744 0.060335 0.000000
0.626667 0.094989 0.000000
0.687662 0.137716 0.000000
0.703271 0.192586 0.000000
0.700059 0.233697 0.000000
0.688493 0.288160 0.000000
0.660862 0.312073 0.000000
0.626293 0.324124 0.000000
0.588028 0.318313 0.000000
0.543213 0.312733 0.000000
0.489096 0.301086 0.000000
0.432789 0.300128 0.000000
0.365298 0.303878 0.000000
0.288160 0.311507 0.000000
0.227345 0.357133 0.000000
0.192004 0.460282 0.000000
0.139390 0.628877 0.000000
0.150103 0.843099 0.000000
0.263415 0.956551 0.000000
1.000000 0.990993 0.000000
0.000000 0.027393 0.000000
0.317006 0.062953 0.000000
0.512816 0.087585 0.000000
0.608906 0.123496 0.000000
0.619876 0.155757 0.000000
0.636670 0.192114 0.000000
0.642867 0.227345 0.000000
0.629220 0.252387 0.000000
0.600589 0.266969 0.000000
0.555347 0.267783 0.000000
0.501937 0.264283 0.000000
0.442069 0.256717 0.000000
0.387850 0.266224 0.000000
0.318923 0.279939 0.000000
0.233697 0.299941 0.000000
0.192114 0.363330 0.000000
0.174792 0.454251 0.000000
0.127427 0.624838 0.000000
0.134777 0.843049 0.000000
0.258290 0.962244 0.000000
1.000000 0.991463 0.000000
0.000000 0.032942 0.000000
0.245415 0.066690 0.000000
0.355455 0.081936 0.000000
0.504165 0.109067 0.000000
0.543189 0.150269 0.000000
0.545749 0.174792 0.000000
0.539718 0.192004 0.000000
0.525535 0.201164 0.000000
0.503362 0.206168 0.000000
0.486594 0.218183 0.000000
0.434859 0.211490 0.000000
0.387626 0.219434 0.000000
0.342772 0.239738 0.000000
0.271450 0.263935 0.000000
0.192586 0.296729 0.000000
0.155757 0.380124 0.000000
0.150269 0.456811 0.000000
0.117084 0.627877 0.000000
0.118367 0.846641 0.000000
0.259781 0.968579 0.000000
1.000000 0.991852 0.000000
0.000000 0.040176 0.000000
0.193261 0.074783 0.000000
0.283787 0.108114 0.000000
0.349809 0.110978 0.000000
0.372123 0.117084 0.000000
0.375162 0.127427 0.000000
0.371123 0.139390 0.000000
0.365871 0.152882 0.000000
0.359499 0.167634 0.000000
[...]
POINT_DATA 2205 
VECTORS pos float 
0.000000 0.000000 0.000000
0.533215 0.000000 0.000000
0.921717 0.000000 0.000000
0.959824 0.000000 0.000000
0.967058 0.000000 0.000000
0.972607 0.000000 0.000000
0.976986 0.000000 0.000000
0.981533 0.000000 0.000000
0.985224 0.000000 0.000000
0.987897 0.000000 0.000000
0.989333 0.000000 0.000000
0.989724 0.000000 0.000000
0.990201 0.000000 0.000000
0.990576 0.000000 0.000000
0.990993 0.000000 0.000000
0.991463 0.000000 0.000000
0.991852 0.000000 0.000000
0.992575 0.000000 0.000000
0.994693 0.000000 0.000000
0.998317 0.000000 0.000000
1.000000 0.000000 0.000000
0.000000 0.001683 0.000000
0.591460 0.004969 0.000000
0.936345 0.050696 0.000000
0.925217 0.193261 0.000000
0.933310 0.245415 0.000000
0.937047 0.317006 0.000000
0.939665 0.375744 0.000000
0.938413 0.453135 0.000000
0.936844 0.535231 0.000000
0.938617 0.590191 0.000000
0.940368 0.646744 0.000000
0.943836 0.680170 0.000000
0.948373 0.698358 0.000000
0.952162 0.721027 0.000000
0.956551 0.736585 0.000000
0.962244 0.741710 0.000000
0.968579 0.740219 0.000000
0.976531 0.719766 0.000000
0.986460 0.669738 0.000000
0.995031 0.591460 0.000000
1.000000 0.533215 0.000000
0.000000 0.005307 0.000000
0.669738 0.013540 0.000000
0.931012 0.106151 0.000000
0.891886 0.283787 0.000000
0.918064 0.355455 0.000000
0.912415 0.512816 0.000000
0.905011 0.626667 0.000000
0.902858 0.716749 0.000000
0.896052 0.773153 0.000000
0.886877 0.795926 0.000000
0.866291 0.804324 0.000000
0.854408 0.812322 0.000000
0.849795 0.824833 0.000000
0.845868 0.836975 0.000000
0.843099 0.849897 0.000000
0.843049 0.865223 0.000000
0.846641 0.881633 0.000000
0.860855 0.905164 0.000000
0.893849 0.931012 0.000000
0.949304 0.936345 0.000000
1.000000 0.921717 0.000000
0.000000 0.007425 0.000000
0.719766 0.023469 0.000000
0.905164 0.139145 0.000000
0.889022 0.349809 0.000000
0.890933 0.504165 0.000000
0.876504 0.608906 0.000000
0.862284 0.687662 0.000000
0.835703 0.727326 0.000000
0.792572 0.749174 0.000000
0.743879 0.769263 0.000000
0.683091 0.796130 0.000000
0.649494 0.817490 0.000000
0.640501 0.832366 0.000000
0.634129 0.847118 0.000000
0.628877 0.860610 0.000000
0.624838 0.872573 0.000000
0.627877 0.882916 0.000000
0.650191 0.889022 0.000000
0.716213 0.891886 0.000000
0.806739 0.925217 0.000000
1.000000 0.959824 0.000000
0.000000 0.008148 0.000000
0.740219 0.031421 0.000000
0.881633 0.153359 0.000000
0.882916 0.372123 0.000000
0.849731 0.543189 0.000000
0.844243 0.619876 0.000000
0.807414 0.703271 0.000000
0.728550 0.736065 0.000000
0.657228 0.760262 0.000000
0.612374 0.780566 0.000000
0.565141 0.788510 0.000000
0.513406 0.781817 0.000000
0.496638 0.793832 0.000000
0.474465 0.798836 0.000000
0.460282 0.807996 0.000000
0.454251 0.825208 0.000000
0.456811 0.849731 0.000000
0.495835 0.890933 0.000000
0.644545 0.918064 0.000000
0.754585 0.933310 0.000000
1.000000 0.967058 0.000000
0.000000 0.008537 0.000000
0.741710 0.037756 0.000000
0.865223 0.156951 0.000000
0.872573 0.375162 0.000000
0.825208 0.545749 0.000000
0.807886 0.636670 0.000000
0.766303 0.700059 0.000000
0.681077 0.720061 0.000000
0.612150 0.733776 0.000000
0.557931 0.743283 0.000000
0.498063 0.735717 0.000000
0.444653 0.732217 0.000000
0.399411 0.733031 0.000000
0.370780 0.747613 0.000000
0.357133 0.772655 0.000000
0.363330 0.807886 0.000000
0.380124 0.844243 0.000000
0.391094 0.876504 0.000000
0.487184 0.912415 0.000000
0.682994 0.937047 0.000000
1.000000 0.972607 0.000000
0.000000 0.009007 0.000000
0.736585 0.043449 0.000000
0.849897 0.156901 0.000000
0.860610 0.371123 0.000000
0.807996 0.539718 0.000000
0.772655 0.642867 0.000000
0.711840 0.688493 0.000000
0.634702 0.696122 0.000000
0.567211 0.699872 0.000000
0.510904 0.698914 0.000000
0.456787 0.687267 0.000000
0.411972 0.681687 0.000000
0.373707 0.675876 0.000000
0.339138 0.687927 0.000000
0.311507 0.711840 0.000000
0.299941 0.766303 0.000000
0.296729 0.807414 0.000000
0.312338 0.862284 0.000000
0.373333 0.905011 0.000000
0.624256 0.939665 0.000000
1.000000 0.976986 0.000000
0.000000 0.009424 0.000000
0.721027 0.047838 0.000000
0.836975 0.154132 0.000000
0.847118 0.365871 0.000000
0.798836 0.525535 0.000000
0.747613 0.629220 0.000000
0.687927 0.660862 0.000000
0.615951 0.663855 0.000000
0.551169 0.661881 0.000000
0.496084 0.653420 0.000000
0.448205 0.633615 0.000000
0.407742 0.619173 0.000000
0.371072 0.607656 0.000000
0.336145 0.615951 0.000000
0.303878 0.634702 0.000000
0.279939 0.681077 0.000000
0.263935 0.728550 0.000000
0.272674 0.835703 0.000000
0.283251 0.902858 0.000000
0.546865 0.938413 0.000000
1.000000 0.981533 0.000000
0.000000 0.009799 0.000000
0.698358 0.051627 0.000000
0.824833 0.150205 0.000000
0.832366 0.359499 0.000000
0.793832 0.503362 0.000000
0.733031 0.600589 0.000000
0.675876 0.626293 0.000000
0.607656 0.628928 0.000000
0.547102 0.620581 0.000000
0.499743 0.606080 0.000000
0.458348 0.585110 0.000000
0.417298 0.563496 0.000000
0.379419 0.547102 0.000000
0.338119 0.551169 0.000000
0.300128 0.567211 0.000000
0.266224 0.612150 0.000000
0.239738 0.657228 0.000000
0.250826 0.792572 0.000000
0.226847 0.896052 0.000000
0.464769 0.936844 0.000000
1.000000 0.985224 0.000000
0.000000 0.010276 0.000000
0.680170 0.056164 0.000000
0.812322 0.145592 0.000000
0.817490 0.350506 0.000000
0.781817 0.486594 0.000000
0.732217 0.555347 0.000000
0.681687 0.588028 0.000000
0.619173 0.592258 0.000000
0.563496 0.582702 0.000000
0.517273 0.563709 0.000000
0.475385 0.540188 0.000000
0.436291 0.517273 0.000000
0.393920 0.499743 0.000000
0.346580 0.496084 0.000000
0.301086 0.510904 0.000000
0.256717 0.557931 0.000000
0.219434 0.612374 0.000000
0.230737 0.743879 0.000000
0.204074 0.886877 0.000000
0.409809 0.938617 0.000000
1.000000 0.987897 0.000000
0.000000 0.010667 0.000000
0.646744 0.059632 0.000000
0.804324 0.133709 0.000000
0.796130 0.316909 0.000000
0.788510 0.434859 0.000000
0.735717 0.501937 0.000000
0.687267 0.543213 0.000000
0.633615 0.551795 0.000000
0.585110 0.541652 0.000000
0.540188 0.524615 0.000000
0.500000 0.500000 0.000000
0.459812 0.475385 0.000000
0.414890 0.458348 0.000000
0.366385 0.448205 0.000000
0.312733 0.456787 0.000000
0.264283 0.498063 0.000000
0.211490 0.565141 0.000000
0.203870 0.683091 0.000000
0.195676 0.866291 0.000000
0.353256 0.940368 0.000000
1.000000 0.989333 0.000000
0.000000 0.012103 0.000000
0.590191 0.061383 0.000000
0.795926 0.113123 0.000000
0.769263 0.256121 0.000000
0.780566 0.387626 0.000000
0.743283 0.442069 0.000000
0.698914 0.489096 0.000000
0.653420 0.503916 0.000000
0.606080 0.500257 0.000000
0.563709 0.482727 0.000000
0.524615 0.459812 0.000000
0.482727 0.436291 0.000000
0.436504 0.417298 0.000000
0.380827 0.407742 0.000000
0.318313 0.411972 0.000000
0.267783 0.444653 0.000000
0.218183 0.513406 0.000000
0.182510 0.649494 0.000000
0.187678 0.854408 0.000000
0.319830 0.943836 0.000000
1.000000 0.989724 0.000000
0.000000 0.014776 0.000000
0.535231 0.063156 0.000000
0.773153 0.103948 0.000000
0.749174 0.207428 0.000000
0.760262 0.342772 0.000000
0.733776 0.387850 0.000000
0.699872 0.432789 0.000000
0.661881 0.448831 0.000000
0.620581 0.452898 0.000000
0.582702 0.436504 0.000000
0.541652 0.414890 0.000000
0.500257 0.393920 0.000000
0.452898 0.379419 0.000000
0.392344 0.371072 0.000000
0.324124 0.373707 0.000000
0.266969 0.399411 0.000000
0.206168 0.496638 0.000000
0.167634 0.640501 0.000000
0.175167 0.849795 0.000000
0.301642 0.948373 0.000000
1.000000 0.990201 0.000000
0.000000 0.018467 0.000000
0.453135 0.061587 0.000000
0.716749 0.097142 0.000000
0.727326 0.164297 0.000000
0.736065 0.271450 0.000000
0.720061 0.318923 0.000000
0.696122 0.365298 0.000000
0.663855 0.384049 0.000000
0.628928 0.392344 0.000000
0.592258 0.380827 0.000000
0.551795 0.366385 0.000000
0.503916 0.346580 0.000000
0.448831 0.338119 0.000000
0.384049 0.336145 0.000000
0.312073 0.339138 0.000000
0.252387 0.370780 0.000000
0.201164 0.474465 0.000000
0.152882 0.634129 0.000000
0.163025 0.845868 0.000000
0.278973 0.952162 0.000000
1.000000 0.990576 0.000000
0.000000 0.023014 0.000000
0.375744 0.060335 0.000000
0.626667 0.094989 0.000000
0.687662 0.137716 0.000000
0.703271 0.192586 0.000000
0.700059 0.233697 0.000000
0.688493 0.288160 0.000000
0.660862 0.312073 0.000000
0.626293 0.324124 0.000000
0.588028 0.318313 0.000000
0.543213 0.312733 0.000000
0.489096 0.301086 0.000000
0.432789 0.300128 0.000000
0.365298 0.303878 0.000000
0.288160 0.311507 0.000000
0.227345 0.357133 0.000000
0.192004 0.460282 0.000000
0.139390 0.628877 0.000000
0.150103 0.843099 0.000000
0.263415 0.956551 0.000000
1.000000 0.990993 0.000000
0.000000 0.027393 0.000000
0.317006 0.062953 0.000000
0.512816 0.087585 0.000000
0.608906 0.123496 0.000000
0.619876 0.155757 0.000000
0.636670 0.192114 0.000000
0.642867 0.227345 0.000000
0.629220 0.252387 0.000000
0.600589 0.266969 0.000000
0.555347 0.267783 0.000000
0.501937 0.264283 0.000000
0.442069 0.256717 0.000000
0.387850 0.266224 0.000000
0.318923 0.279939 0.000000
0.233697 0.299941 0.000000
0.192114 0.363330 0.000000
0.174792 0.454251 0.000000
0.127427 0.624838 0.000000
0.134777 0.843049 0.000000
0.258290 0.962244 0.000000
1.000000 0.991463 0.000000
0.000000 0.032942 0.000000
0.245415 0.066690 0.000000
0.355455 0.081936 0.000000
0.504165 0.109067 0.000000
0.543189 0.150269 0.000000
0.545749 0.174792 0.000000
0.539718 0.192004 0.000000
0.525535 0.201164 0.000000
0.503362 0.206168 0.000000
0.486594 0.218183 0.000000
0.434859 0.211490 0.000000
0.387626 0.219434 0.000000
0.342772 0.239738 0.000000
0.271450 0.263935 0.000000
0.192586 0.296729 0.000000
0.155757 0.380124 0.000000
0.150269 0.456811 0.000000
0.117084 0.627877 0.000000
0.118367 0.846641 0.000000
0.259781 0.968579 0.000000
1.000000 0.991852 0.000000
0.000000 0.040176 0.000000
0.193261 0.074783 0.000000
0.283787 0.108114 0.000000
0.349809 0.110978 0.000000
0.372123 0.117084 0.000000
0.375162 0.127427 0.000000
0.371123 0.139390 0.000000
0.365871 0.152882 0.000000
0.359499 0.167634 0.000000
0.350506 0.182510 0.000000
0.316909 0.203870 0.000000
0.256121 0.230737 0.000000
0.207428 0.250826 0.000000
0.164297 0.272674 0.000000
0.137716 0.312338 0.000000
0.123496 0.391094 0.000000
0.109067 0.495835 0.000000
0.110978 0.650191 0.000000
0.094836 0.860855 0.000000
0.280234 0.976531 0.000000
1.000000 0.992575 0.000000
0.000000 0.078283 0.000000
0.050696 0.063655 0.000000
0.106151 0.068988 0.000000
0.139145 0.094836 0.000000
0.153359 0.118367 0.000000
0.156951 0.134777 0.000000
0.156901 0.150103 0.000000
0.154132 0.163025 0.000000
0.150205 0.175167 0.000000
0.145592 0.187678 0.000000
0.133709 0.195676 0.000000
0.113123 0.204074 0.000000
0.103948 0.226847 0.000000
0.097142 0.283251 0.000000
0.094989 0.373333 0.000000
0.087585 0.487184 0.000000
0.081936 0.644545 0.000000
0.108114 0.716213 0.000000
0.068988 0.893849 0.000000
0.330262 0.986460 0.000000
1.000000 0.994693 0.000000
0.000000 0.466785 0.000000
0.004969 0.408540 0.000000
0.013540 0.330262 0.000000
0.023469 0.280234 0.000000
0.031421 0.259781 0.000000
0.037756 0.258290 0.000000
0.043449 0.263415 0.000000
0.047838 0.278973 0.000000
0.051627 0.301642 0.000000
0.056164 0.319830 0.000000
0.059632 0.353256 0.000000
0.061383 0.409809 0.000000
0.063156 0.464769 0.000000
0.061587 0.546865 0.000000
0.060335 0.624256 0.000000
0.062953 0.682994 0.000000
0.066690 0.754585 0.000000
0.074783 0.806739 0.000000
0.063655 0.949304 0.000000
0.408540 0.995031 0.000000
1.000000 0.998317 0.000000
0.000000 1.000000 0.000000
0.001683 1.000000 0.000000
0.005307 1.000000 0.000000
0.007425 1.000000 0.000000
0.008148 1.000000 0.000000
0.008537 1.000000 0.000000
0.009007 1.000000 0.000000
0.009424 1.000000 0.000000
0.009799 1.000000 0.000000
0.010276 1.000000 0.000000
0.010667 1.000000 0.000000
0.012103 1.000000 0.000000
0.014776 1.000000 0.000000
0.018467 1.000000 0.000000
0.023014 1.000000 0.000000
0.027393 1.000000 0.000000
0.032942 1.000000 0.000000
0.040176 1.000000 0.000000
0.078283 1.000000 0.000000
0.466785 1.000000 0.000000
1.000000 1.000000 0.000000
0.000000 0.000000 0.082500
0.533215 0.000000 0.082500
0.921717 0.000000 0.082500
0.959824 0.000000 0.082500
0.967058 0.000000 0.082500
0.972607 0.000000 0.082500
0.976986 0.000000 0.082500
0.981533 0.000000 0.082500
0.985224 0.000000 0.082500
0.987897 0.000000 0.082500
0.989333 0.000000 0.082500
0.989724 0.000000 0.082500
0.990201 0.000000 0.082500
0.990576 0.000000 0.082500
0.990993 0.000000 0.082500
0.991463 0.000000 0.082500
0.991852 0.000000 0.082500
0.992575 0.000000 0.082500
0.994693 0.000000 0.082500
0.998317 0.000000 0.082500
1.000000 0.000000 0.082500
0.000000 0.001683 0.082500
0.591460 0.004969 0.082500
0.936345 0.050696 0.082500
0.925217 0.193261 0.082500
0.933310 0.245415 0.082500
0.937047 0.317006 0.082500
0.939665 0.375744 0.082500
0.938413 0.453135 0.082500
0.936844 0.535231 0.082500
0.938617 0.590191 0.082500
0.940368 0.646744 0.082500
0.943836 0.680170 0.082500
0.948373 0.698358 0.082500
0.952162 0.721027 0.082500
0.956551 0.736585 0.082500
0.962244 0.741710 0.082500
0.968579 0.740219 0.082500
0.976531 0.719766 0.082500
0.986460 0.669738 0.082500
0.995031 0.591460 0.082500
1.000000 0.533215 0.082500
0.000000 0.005307 0.082500
0.669738 0.013540 0.082500
0.931012 0.106151 0.082500
0.891886 0.283787 0.082500
0.918064 0.355455 0.082500
0.912415 0.512816 0.082500
0.905011 0.626667 0.082500
0.902858 0.716749 0.082500
0.896052 0.773153 0.082500
0.886877 0.795926 0.082500
0.866291 0.804324 0.082500
0.854408 0.812322 0.082500
0.849795 0.824833 0.082500
0.845868 0.836975 0.082500
0.843099 0.849897 0.082500
0.843049 0.865223 0.082500
0.846641 0.881633 0.082500
0.860855 0.905164 0.082500
0.893849 0.931012 0.082500
0.949304 0.936345 0.082500
1.000000 0.921717 0.082500
0.000000 0.007425 0.082500
0.719766 0.023469 0.082500
0.905164 0.139145 0.082500
0.889022 0.349809 0.082500
0.890933 0.504165 0.082500
0.876504 0.608906 0.082500
0.862284 0.687662 0.082500
0.835703 0.727326 0.082500
0.792572 0.749174 0.082500
0.743879 0.769263 0.082500
0.683091 0.796130 0.082500
0.649494 0.817490 0.082500
0.640501 0.832366 0.082500
0.634129 0.847118 0.082500
0.628877 0.860610 0.082500
0.624838 0.872573 0.082500
0.627877 0.882916 0.082500
0.650191 0.889022 0.082500
0.716213 0.891886 0.082500
0.806739 0.925217 0.082500
1.000000 0.959824 0.082500
0.000000 0.008148 0.082500
0.740219 0.031421 0.082500
0.881633 0.153359 0.082500
0.882916 0.372123 0.082500
0.849731 0.543189 0.082500
0.844243 0.619876 0.082500
0.807414 0.703271 0.082500
0.728550 0.736065 0.082500
0.657228 0.760262 0.082500
0.612374 0.780566 0.082500
0.565141 0.788510 0.082500
0.513406 0.781817 0.082500
0.496638 0.793832 0.082500
0.474465 0.798836 0.082500
0.460282 0.807996 0.082500
0.454251 0.825208 0.082500
0.456811 0.849731 0.082500
0.495835 0.890933 0.082500
0.644545 0.918064 0.082500
0.754585 0.933310 0.082500
1.000000 0.967058 0.082500
0.000000 0.008537 0.082500
0.741710 0.037756 0.082500
0.865223 0.156951 0.082500
0.872573 0.375162 0.082500
0.825208 0.545749 0.082500
0.807886 0.636670 0.082500
0.766303 0.700059 0.082500
0.681077 0.720061 0.082500
0.612150 0.733776 0.082500
0.557931 0.743283 0.082500
0.498063 0.735717 0.082500
0.444653 0.732217 0.082500
0.399411 0.733031 0.082500
0.370780 0.747613 0.082500
0.357133 0.772655 0.082500
0.363330 0.807886 0.082500
0.380124 0.844243 0.082500
0.391094 0.876504 0.082500
0.487184 0.912415 0.082500
0.682994 0.937047 0.082500
1.000000 0.972607 0.082500
0.000000 0.009007 0.082500
0.736585 0.043449 0.082500
0.849897 0.156901 0.082500
0.860610 0.371123 0.082500
0.807996 0.539718 0.082500
0.772655 0.642867 0.082500
0.711840 0.688493 0.082500
0.634702 0.696122 0.082500
0.567211 0.699872 0.082500
0.510904 0.698914 0.082500
0.456787 0.687267 0.082500
0.411972 0.681687 0.082500
0.373707 0.675876 0.082500
0.339138 0.687927 0.082500
0.311507 0.711840 0.082500
0.299941 0.766303 0.082500
0.296729 0.807414 0.082500
0.312338 0.862284 0.082500
0.373333 0.905011 0.082500
0.624256 0.939665 0.082500
1.000000 0.976986 0.082500
0.000000 0.009424 0.082500
0.721027 0.047838 0.082500
0.836975 0.154132 0.082500
0.847118 0.365871 0.082500
0.798836 0.525535 0.082500
0.747613 0.629220 0.082500
0.687927 0.660862 0.082500
0.615951 0.663855 0.082500
0.551169 0.661881 0.082500
0.496084 0.653420 0.082500
0.448205 0.633615 0.082500
0.407742 0.619173 0.082500
0.371072 0.607656 0.082500
0.336145 0.615951 0.082500
0.303878 0.634702 0.082500
0.279939 0.681077 0.082500
0.263935 0.728550 0.082500
0.272674 0.835703 0.082500
0.283251 0.902858 0.082500
0.546865 0.938413 0.082500
1.000000 0.981533 0.082500
0.000000 0.009799 0.082500
0.698358 0.051627 0.082500
0.824833 0.150205 0.082500
0.832366 0.359499 0.082500
0.793832 0.503362 0.082500
0.733031 0.600589 0.082500
0.675876 0.626293 0.082500
0.607656 0.628928 0.082500
0.547102 0.620581 0.082500
0.499743 0.606080 0.082500
0.458348 0.585110 0.082500
0.417298 0.563496 0.082500
0.379419 0.547102 0.082500
0.338119 0.551169 0.082500
0.300128 0.567211 0.082500
0.266224 0.612150 0.082500
0.239738 0.657228 0.082500
0.250826 0.792572 0.082500
0.226847 0.896052 0.082500
0.464769 0.936844 0.082500
1.000000 0.985224 0.082500
0.000000 0.010276 0.082500
0.680170 0.056164 0.082500
0.812322 0.145592 0.082500
0.817490 0.350506 0.082500
0.781817 0.486594 0.082500
0.732217 0.555347 0.082500
0.681687 0.588028 0.082500
0.619173 0.592258 0.082500
0.563496 0.582702 0.082500
0.517273 0.563709 0.082500
0.475385 0.540188 0.082500
0.436291 0.517273 0.082500
0.393920 0.499743 0.082500
0.346580 0.496084 0.082500
0.301086 0.510904 0.082500
0.256717 0.557931 0.082500
0.219434 0.612374 0.082500
0.230737 0.743879 0.082500
0.204074 0.886877 0.082500
0.409809 0.938617 0.082500
1.000000 0.987897 0.082500
0.000000 0.010667 0.082500
0.646744 0.059632 0.082500
0.804324 0.133709 0.082500
0.796130 0.316909 0.082500
0.788510 0.434859 0.082500
0.735717 0.501937 0.082500
0.687267 0.543213 0.082500
0.633615 0.551795 0.082500
0.585110 0.541652 0.082500
0.540188 0.524615 0.082500
0.500000 0.500000 0.082500
0.459812 0.475385 0.082500
0.414890 0.458348 0.082500
0.366385 0.448205 0.082500
0.312733 0.456787 0.082500
0.264283 0.498063 0.082500
0.211490 0.565141 0.082500
0.203870 0.683091 0.082500
0.195676 0.866291 0.082500
0.353256 0.940368 0.082500
1.000000 0.989333 0.082500
0.000000 0.012103 0.082500
0.590191 0.061383 0.082500
0.795926 0.113123 0.082500
0.769263 0.256121 0.082500
0.780566 0.387626 0.082500
0.743283 0.442069 0.082500
0.698914 0.489096 0.082500
0.653420 0.503916 0.082500
0.606080 0.500257 0.082500
0.563709 0.482727 0.082500
0.524615 0.459812 0.082500
0.482727 0.436291 0.082500
0.436504 0.417298 0.082500
0.380827 0.407742 0.082500
0.318313 0.411972 0.082500
0.267783 0.444653 0.082500
0.218183 0.513406 0.082500
0.182510 0.649494 0.082500
0.187678 0.854408 0.082500
0.319830 0.943836 0.082500
1.000000 0.989724 0.082500
0.000000 0.014776 0.082500
0.535231 0.063156 0.082500
0.773153 0.103948 0.082500
0.749174 0.207428 0.082500
0.760262 0.342772 0.082500
0.733776 0.387850 0.082500
0.699872 0.432789 0.082500
0.661881 0.448831 0.082500
0.620581 0.452898 0.082500
0.582702 0.436504 0.082500
0.541652 0.414890 0.082500
0.500257 0.393920 0.082500
0.452898 0.379419 0.082500
0.392344 0.371072 0.082500
0.324124 0.373707 0.082500
0.266969 0.399411 0.082500
0.206168 0.496638 0.082500
0.167634 0.640501 0.082500
0.175167 0.849795 0.082500
0.301642 0.948373 0.082500
1.000000 0.990201 0.082500
0.000000 0.018467 0.082500
0.453135 0.061587 0.082500
0.716749 0.097142 0.082500
0.727326 0.164297 0.082500
0.736065 0.271450 0.082500
0.720061 0.318923 0.082500
0.696122 0.365298 0.082500
0.663855 0.384049 0.082500
0.628928 0.392344 0.082500
0.592258 0.380827 0.082500
0.551795 0.366385 0.082500
0.503916 0.346580 0.082500
0.448831 0.338119 0.082500
0.384049 0.336145 0.082500
0.312073 0.339138 0.082500
0.252387 0.370780 0.082500
0.201164 0.474465 0.082500
0.152882 0.634129 0.082500
0.163025 0.845868 0.082500
0.278973 0.952162 0.082500
1.000000 0.990576 0.082500
0.000000 0.023014 0.082500
0.375744 0.060335 0.082500
0.626667 0.094989 0.082500
0.687662 0.137716 0.082500