# vtk DataFile Version 2.0
Mesh for Fierro
ASCII 
DATASET UNSTRUCTURED_GRID

POINTS 2205 float
0.000000 0.000000 0.000000
0.531747 0.000000 0.000000
0.920143 0.000000 0.000000
0.958820 0.000000 0.000000
0.966030 0.000000 0.000000
0.971902 0.000000 0.000000
0.976522 0.000000 0.000000
0.981121 0.000000 0.000000
0.984921 0.000000 0.000000
0.987699 0.000000 0.000000
0.989343 0.000000 0.000000
0.989664 0.000000 0.000000
0.990054 0.000000 0.000000
0.990440 0.000000 0.000000
0.990862 0.000000 0.000000
0.991267 0.000000 0.000000
0.991745 0.000000 0.000000
0.992425 0.000000 0.000000
0.994493 0.000000 0.000000
0.998207 0.000000 0.000000
1.000000 0.000000 0.000000
0.000000 0.001793 0.000000
0.590041 0.004991 0.000000
0.934898 0.049867 0.000000
0.923642 0.189311 0.000000
0.932562 0.239317 0.000000
0.936665 0.309697 0.000000
0.939512 0.367906 0.000000
0.938387 0.445415 0.000000
0.937042 0.526335 0.000000
0.938830 0.582724 0.000000
0.940794 0.638959 0.000000
0.944376 0.673964 0.000000
0.949065 0.692237 0.000000
0.952774 0.716645 0.000000
0.957073 0.733683 0.000000
0.962767 0.739314 0.000000
0.968819 0.739651 0.000000
0.976702 0.719410 0.000000
0.986511 0.669319 0.000000
0.995009 0.590041 0.000000
1.000000 0.531747 0.000000
0.000000 0.005507 0.000000
0.669319 0.013489 0.000000
0.929054 0.104071 0.000000
0.890365 0.277246 0.000000
0.917481 0.347542 0.000000
0.912899 0.502715 0.000000
0.905573 0.616834 0.000000
0.903587 0.706531 0.000000
0.896997 0.765193 0.000000
0.889709 0.788988 0.000000
0.870294 0.798738 0.000000
0.858238 0.807133 0.000000
0.854235 0.819952 0.000000
0.850562 0.832516 0.000000
0.847685 0.845927 0.000000
0.847453 0.861525 0.000000
0.851092 0.878406 0.000000
0.864636 0.902363 0.000000
0.895929 0.929054 0.000000
0.950133 0.934898 0.000000
1.000000 0.920143 0.000000
0.000000 0.007575 0.000000
0.719410 0.023298 0.000000
0.902363 0.135364 0.000000
0.888165 0.341666 0.000000
0.891480 0.495296 0.000000
0.877293 0.600670 0.000000
0.862968 0.680305 0.000000
0.837442 0.722627 0.000000
0.795391 0.745985 0.000000
0.749453 0.766371 0.000000
0.688438 0.794129 0.000000
0.654449 0.816478 0.000000
0.646402 0.831310 0.000000
0.640739 0.846197 0.000000
0.635845 0.859907 0.000000
0.632356 0.871971 0.000000
0.635880 0.882358 0.000000
0.658334 0.888165 0.000000
0.722754 0.890365 0.000000
0.810689 0.923642 0.000000
1.000000 0.958820 0.000000
0.000000 0.008255 0.000000
0.739651 0.031181 0.000000
0.878406 0.148908 0.000000
0.882358 0.364120 0.000000
0.850301 0.535061 0.000000
0.845183 0.612052 0.000000
0.810250 0.697160 0.000000
0.733456 0.732820 0.000000
0.664452 0.757262 0.000000
0.620187 0.778269 0.000000
0.576239 0.787875 0.000000
0.524525 0.782015 0.000000
0.505408 0.793748 0.000000
0.483028 0.799085 0.000000
0.469067 0.808646 0.000000
0.462291 0.825704 0.000000
0.464939 0.850301 0.000000
0.504704 0.891480 0.000000
0.652458 0.917481 0.000000
0.760683 0.932562 0.000000
1.000000 0.966030 0.000000
0.000000 0.008733 0.000000
0.739314 0.037233 0.000000
0.861525 0.152547 0.000000
0.871971 0.367644 0.000000
0.825704 0.537709 0.000000
0.809371 0.629382 0.000000
0.769866 0.694790 0.000000
0.685932 0.716926 0.000000
0.618655 0.731415 0.000000
0.564827 0.741725 0.000000
0.504028 0.735703 0.000000
0.450950 0.734025 0.000000
0.405597 0.735312 0.000000
0.377306 0.750376 0.000000
0.363576 0.774817 0.000000
0.370618 0.809371 0.000000
0.387948 0.845183 0.000000
0.399330 0.877293 0.000000
0.497285 0.912899 0.000000
0.690303 0.936665 0.000000
1.000000 0.971902 0.000000
0.000000 0.009138 0.000000
0.733683 0.042927 0.000000
0.845927 0.152315 0.000000
0.859907 0.364155 0.000000
0.808646 0.530933 0.000000
0.774817 0.636424 0.000000
0.716106 0.683915 0.000000
0.639643 0.693091 0.000000
0.573133 0.698483 0.000000
0.516431 0.698780 0.000000
0.462274 0.688837 0.000000
0.417526 0.684089 0.000000
0.378358 0.679032 0.000000
0.343345 0.691945 0.000000
0.316085 0.716106 0.000000
0.305210 0.769866 0.000000
0.302840 0.810250 0.000000
0.319695 0.862968 0.000000
0.383166 0.905573 0.000000
0.632094 0.939512 0.000000
1.000000 0.976522 0.000000
0.000000 0.009560 0.000000
0.716645 0.047226 0.000000
0.832516 0.149438 0.000000
0.846197 0.359261 0.000000
0.799085 0.516972 0.000000
0.750376 0.622694 0.000000
0.691945 0.656655 0.000000
0.620218 0.660945 0.000000
0.555746 0.661267 0.000000
0.500694 0.653517 0.000000
0.451928 0.634946 0.000000
0.410727 0.621685 0.000000
0.373808 0.611129 0.000000
0.339055 0.620218 0.000000
0.306909 0.639643 0.000000
0.283074 0.685932 0.000000
0.267180 0.733456 0.000000
0.277373 0.837442 0.000000
0.293469 0.903587 0.000000
0.554585 0.938387 0.000000
1.000000 0.981121 0.000000
0.000000 0.009946 0.000000
0.692237 0.050935 0.000000
0.819952 0.145765 0.000000
0.831310 0.353598 0.000000
0.793748 0.494592 0.000000
0.735312 0.594403 0.000000
0.679032 0.621642 0.000000
0.611129 0.626192 0.000000
0.550554 0.619659 0.000000
0.502817 0.606022 0.000000
0.460709 0.586581 0.000000
0.419431 0.565954 0.000000
0.380341 0.550554 0.000000
0.338733 0.555746 0.000000
0.301517 0.573133 0.000000
0.268585 0.618655 0.000000
0.242738 0.664452 0.000000
0.254015 0.795391 0.000000
0.234807 0.896997 0.000000
0.473665 0.937042 0.000000
1.000000 0.984921 0.000000
0.000000 0.010336 0.000000
0.673964 0.055624 0.000000
0.807133 0.141762 0.000000
0.816478 0.345551 0.000000
0.782015 0.475475 0.000000
0.734025 0.549050 0.000000
0.684089 0.582474 0.000000
0.621685 0.589273 0.000000
0.565954 0.580569 0.000000
0.519129 0.563284 0.000000
0.476573 0.540889 0.000000
0.436716 0.519129 0.000000
0.393978 0.502817 0.000000
0.346483 0.500694 0.000000
0.301220 0.516431 0.000000
0.258275 0.564827 0.000000
0.221731 0.620187 0.000000
0.233629 0.749453 0.000000
0.211012 0.889709 0.000000
0.417276 0.938830 0.000000
1.000000 0.987699 0.000000
0.000000 0.010657 0.000000
0.638959 0.059206 0.000000
0.798738 0.129706 0.000000
0.794129 0.311562 0.000000
0.787875 0.423761 0.000000
0.735703 0.495972 0.000000
0.688837 0.537726 0.000000
0.634946 0.548072 0.000000
0.586581 0.539291 0.000000
0.540889 0.523427 0.000000
0.500000 0.500000 0.000000
0.459111 0.476573 0.000000
0.413419 0.460709 0.000000
0.365054 0.451928 0.000000
0.311163 0.462274 0.000000
0.264297 0.504028 0.000000
0.212125 0.576239 0.000000
0.205871 0.688438 0.000000
0.201262 0.870294 0.000000
0.361041 0.940794 0.000000
1.000000 0.989343 0.000000
0.000000 0.012301 0.000000
0.582724 0.061170 0.000000
0.788988 0.110291 0.000000
0.766371 0.250547 0.000000
0.778269 0.379813 0.000000
0.741725 0.435173 0.000000
0.698780 0.483569 0.000000
0.653517 0.499306 0.000000
0.606022 0.497183 0.000000
0.563284 0.480871 0.000000
0.523427 0.459111 0.000000
0.480871 0.436716 0.000000
0.434046 0.419431 0.000000
0.378315 0.410727 0.000000
0.315911 0.417526 0.000000
0.265975 0.450950 0.000000
0.217985 0.524525 0.000000
0.183522 0.654449 0.000000
0.192867 0.858238 0.000000
0.326036 0.944376 0.000000
1.000000 0.989664 0.000000
0.000000 0.015079 0.000000
0.526335 0.062958 0.000000
0.765193 0.103003 0.000000
0.745985 0.204609 0.000000
0.757262 0.335548 0.000000
0.731415 0.381345 0.000000
0.698483 0.426867 0.000000
0.661267 0.444254 0.000000
0.619659 0.449446 0.000000
0.580569 0.434046 0.000000
0.539291 0.413419 0.000000
0.497183 0.393978 0.000000
0.449446 0.380341 0.000000
0.388871 0.373808 0.000000
0.320968 0.378358 0.000000
0.264688 0.405597 0.000000
0.206252 0.505408 0.000000
0.168690 0.646402 0.000000
0.180048 0.854235 0.000000
0.307763 0.949065 0.000000
1.000000 0.990054 0.000000
0.000000 0.018879 0.000000
0.445415 0.061613 0.000000
0.706531 0.096413 0.000000
0.722627 0.162558 0.000000
0.732820 0.266544 0.000000
0.716926 0.314068 0.000000
0.693091 0.360357 0.000000
0.660945 0.379782 0.000000
0.626192 0.388871 0.000000
0.589273 0.378315 0.000000
0.548072 0.365054 0.000000
0.499306 0.346483 0.000000
0.444254 0.338733 0.000000
0.379782 0.339055 0.000000
0.308055 0.343345 0.000000
0.249624 0.377306 0.000000
0.200915 0.483028 0.000000
0.153803 0.640739 0.000000
0.167484 0.850562 0.000000
0.283355 0.952774 0.000000
1.000000 0.990440 0.000000
0.000000 0.023478 0.000000
0.367906 0.060488 0.000000
0.616834 0.094427 0.000000
0.680305 0.137032 0.000000
0.697160 0.189750 0.000000
0.694790 0.230134 0.000000
0.683915 0.283894 0.000000
0.656655 0.308055 0.000000
0.621642 0.320968 0.000000
0.582474 0.315911 0.000000
0.537726 0.311163 0.000000
0.483569 0.301220 0.000000
0.426867 0.301517 0.000000
0.360357 0.306909 0.000000
0.283894 0.316085 0.000000
0.225183 0.363576 0.000000
0.191354 0.469067 0.000000
0.140093 0.635845 0.000000
0.154073 0.847685 0.000000
0.266317 0.957073 0.000000
1.000000 0.990862 0.000000
0.000000 0.028098 0.000000
0.309697 0.063335 0.000000
0.502715 0.087101 0.000000
0.600670 0.122707 0.000000
0.612052 0.154817 0.000000
0.629382 0.190629 0.000000
0.636424 0.225183 0.000000
0.622694 0.249624 0.000000
0.594403 0.264688 0.000000
0.549050 0.265975 0.000000
0.495972 0.264297 0.000000
0.435173 0.258275 0.000000
0.381345 0.268585 0.000000
0.314068 0.283074 0.000000
0.230134 0.305210 0.000000
0.190629 0.370618 0.000000
0.174296 0.462291 0.000000
0.128029 0.632356 0.000000
0.138475 0.847453 0.000000
0.260686 0.962767 0.000000
1.000000 0.991267 0.000000
0.000000 0.033970 0.000000
0.239317 0.067438 0.000000
0.347542 0.082519 0.000000
0.495296 0.108520 0.000000
0.535061 0.149699 0.000000
0.537709 0.174296 0.000000
0.530933 0.191354 0.000000
0.516972 0.200915 0.000000
0.494592 0.206252 0.000000
0.475475 0.217985 0.000000
0.423761 0.212125 0.000000
0.379813 0.221731 0.000000
0.335548 0.242738 0.000000
0.266544 0.267180 0.000000
0.189750 0.302840 0.000000
0.154817 0.387948 0.000000
0.149699 0.464939 0.000000
0.117642 0.635880 0.000000
0.121594 0.851092 0.000000
0.260349 0.968819 0.000000
1.000000 0.991745 0.000000
0.000000 0.041180 0.000000
0.189311 0.076358 0.000000
0.277246 0.109635 0.000000
0.341666 0.111835 0.000000
0.364120 0.117642 0.000000
0.367644 0.128029 0.000000
0.364155 0.140093 0.000000
0.359261 0.153803 0.000000
0.353598 0.168690 0.000000
[...]
POINT_DATA 2205 
VECTORS pos float 
0.000000 0.000000 0.000000
0.531747 0.000000 0.000000
0.920143 0.000000 0.000000
0.958820 0.000000 0.000000
0.966030 0.000000 0.000000
0.971902 0.000000 0.000000
0.976522 0.000000 0.000000
0.981121 0.000000 0.000000
0.984921 0.000000 0.000000
0.987699 0.000000 0.000000
0.989343 0.000000 0.000000
0.989664 0.000000 0.000000
0.990054 0.000000 0.000000
0.990440 0.000000 0.000000
0.990862 0.000000 0.000000
0.991267 0.000000 0.000000
0.991745 0.000000 0.000000
0.992425 0.000000 0.000000
0.994493 0.000000 0.000000
0.998207 0.000000 0.000000
1.000000 0.000000 0.000000
0.000000 0.001793 0.000000
0.590041 0.004991 0.000000
0.934898 0.049867 0.000000
0.923642 0.189311 0.000000
0.932562 0.239317 0.000000
0.936665 0.309697 0.000000
0.939512 0.367906 0.000000
0.938387 0.445415 0.000000
0.937042 0.526335 0.000000
0.938830 0.582724 0.000000
0.940794 0.638959 0.000000
0.944376 0.673964 0.000000
0.949065 0.692237 0.000000
0.952774 0.716645 0.000000
0.957073 0.733683 0.000000
0.962767 0.739314 0.000000
0.968819 0.739651 0.000000
0.976702 0.719410 0.000000
0.986511 0.669319 0.000000
0.995009 0.590041 0.000000
1.000000 0.531747 0.000000
0.000000 0.005507 0.000000
0.669319 0.013489 0.000000
0.929054 0.104071 0.000000
0.890365 0.277246 0.000000
0.917481 0.347542 0.000000
0.912899 0.502715 0.000000
0.905573 0.616834 0.000000
0.903587 0.706531 0.000000
0.896997 0.765193 0.000000
0.889709 0.788988 0.000000
0.870294 0.798738 0.000000
0.858238 0.807133 0.000000
0.854235 0.819952 0.000000
0.850562 0.832516 0.000000
0.847685 0.845927 0.000000
0.847453 0.861525 0.000000
0.851092 0.878406 0.000000
0.864636 0.902363 0.000000
0.895929 0.929054 0.000000
0.950133 0.934898 0.000000
1.000000 0.920143 0.000000
0.000000 0.007575 0.000000
0.719410 0.023298 0.000000
0.902363 0.135364 0.000000
0.888165 0.341666 0.000000
0.891480 0.495296 0.000000
0.877293 0.600670 0.000000
0.862968 0.680305 0.000000
0.837442 0.722627 0.000000
0.795391 0.745985 0.000000
0.749453 0.766371 0.000000
0.688438 0.794129 0.000000
0.654449 0.816478 0.000000
0.646402 0.831310 0.000000
0.640739 0.846197 0.000000
0.635845 0.859907 0.000000
0.632356 0.871971 0.000000
0.635880 0.882358 0.000000
0.658334 0.888165 0.000000
0.722754 0.890365 0.000000
0.810689 0.923642 0.000000
1.000000 0.958820 0.000000
0.000000 0.008255 0.000000
0.739651 0.031181 0.000000
0.878406 0.148908 0.000000
0.882358 0.364120 0.000000
0.850301 0.535061 0.000000
0.845183 0.612052 0.000000
0.810250 0.697160 0.000000
0.733456 0.732820 0.000000
0.664452 0.757262 0.000000
0.620187 0.778269 0.000000
0.576239 0.787875 0.000000
0.524525 0.782015 0.000000
0.505408 0.793748 0.000000
0.483028 0.799085 0.000000
0.469067 0.808646 0.000000
0.462291 0.825704 0.000000
0.464939 0.850301 0.000000
0.504704 0.891480 0.000000
0.652458 0.917481 0.000000
0.760683 0.932562 0.000000
1.000000 0.966030 0.000000
0.000000 0.008733 0.000000
0.739314 0.037233 0.000000
0.861525 0.152547 0.000000
0.871971 0.367644 0.000000
0.825704 0.537709 0.000000
0.809371 0.629382 0.000000
0.769866 0.694790 0.000000
0.685932 0.716926 0.000000
0.618655 0.731415 0.000000
0.564827 0.741725 0.000000
0.504028 0.735703 0.000000
0.450950 0.734025 0.000000
0.405597 0.735312 0.000000
0.377306 0.750376 0.000000
0.363576 0.774817 0.000000
0.370618 0.809371 0.000000
0.387948 0.845183 0.000000
0.399330 0.877293 0.000000
0.497285 0.912899 0.000000
0.690303 0.936665 0.000000
1.000000 0.971902 0.000000
0.000000 0.009138 0.000000
0.733683 0.042927 0.000000
0.845927 0.152315 0.000000
0.859907 0.364155 0.000000
0.808646 0.530933 0.000000
0.774817 0.636424 0.000000
0.716106 0.683915 0.000000
0.639643 0.693091 0.000000
0.573133 0.698483 0.000000
0.516431 0.698780 0.000000
0.462274 0.688837 0.000000
0.417526 0.684089 0.000000
0.378358 0.679032 0.000000
0.343345 0.691945 0.000000
0.316085 0.716106 0.000000
0.305210 0.769866 0.000000
0.302840 0.810250 0.000000
0.319695 0.862968 0.000000
0.383166 0.905573 0.000000
0.632094 0.939512 0.000000
1.000000 0.976522 0.000000
0.000000 0.009560 0.000000
0.716645 0.047226 0.000000
0.832516 0.149438 0.000000
0.846197 0.359261 0.000000
0.799085 0.516972 0.000000
0.750376 0.622694 0.000000
0.691945 0.656655 0.000000
0.620218 0.660945 0.000000
0.555746 0.661267 0.000000
0.500694 0.653517 0.000000
0.451928 0.634946 0.000000
0.410727 0.621685 0.000000
0.373808 0.611129 0.000000
0.339055 0.620218 0.000000
0.306909 0.639643 0.000000
0.283074 0.685932 0.000000
0.267180 0.733456 0.000000
0.277373 0.837442 0.000000
0.293469 0.903587 0.000000
0.554585 0.938387 0.000000
1.000000 0.981121 0.000000
0.000000 0.009946 0.000000
0.692237 0.050935 0.000000
0.819952 0.145765 0.000000
0.831310 0.353598 0.000000
0.793748 0.494592 0.000000
0.735312 0.594403 0.000000
0.679032 0.621642 0.000000
0.611129 0.626192 0.000000
0.550554 0.619659 0.000000
0.502817 0.606022 0.000000
0.460709 0.586581 0.000000
0.419431 0.565954 0.000000
0.380341 0.550554 0.000000
0.338733 0.555746 0.000000
0.301517 0.573133 0.000000
0.268585 0.618655 0.000000
0.242738 0.664452 0.000000
0.254015 0.795391 0.000000
0.234807 0.896997 0.000000
0.473665 0.937042 0.000000
1.000000 0.984921 0.000000
0.000000 0.010336 0.000000
0.673964 0.055624 0.000000
0.807133 0.141762 0.000000
0.816478 0.345551 0.000000
0.782015 0.475475 0.000000
0.734025 0.549050 0.000000
0.684089 0.582474 0.000000
0.621685 0.589273 0.000000
0.565954 0.580569 0.000000
0.519129 0.563284 0.000000
0.476573 0.540889 0.000000
0.436716 0.519129 0.000000
0.393978 0.502817 0.000000
0.346483 0.500694 0.000000
0.301220 0.516431 0.000000
0.258275 0.564827 0.000000
0.221731 0.620187 0.000000
0.233629 0.749453 0.000000
0.211012 0.889709 0.000000
0.417276 0.938830 0.000000
1.000000 0.987699 0.000000
0.000000 0.010657 0.000000
0.638959 0.059206 0.000000
0.798738 0.129706 0.000000
0.794129 0.311562 0.000000
0.787875 0.423761 0.000000
0.735703 0.495972 0.000000
0.688837 0.537726 0.000000
0.634946 0.548072 0.000000
0.586581 0.539291 0.000000
0.540889 0.523427 0.000000
0.500000 0.500000 0.000000
0.459111 0.476573 0.000000
0.413419 0.460709 0.000000
0.365054 0.451928 0.000000
0.311163 0.462274 0.000000
0.264297 0.504028 0.000000
0.212125 0.576239 0.000000
0.205871 0.688438 0.000000
0.201262 0.870294 0.000000
0.361041 0.940794 0.000000
1.000000 0.989343 0.000000
0.000000 0.012301 0.000000
0.582724 0.061170 0.000000
0.788988 0.110291 0.000000
0.766371 0.250547 0.000000
0.778269 0.379813 0.000000
0.741725 0.435173 0.000000
0.698780 0.483569 0.000000
0.653517 0.499306 0.000000
0.606022 0.497183 0.000000
0.563284 0.480871 0.000000
0.523427 0.459111 0.000000
0.480871 0.436716 0.000000
0.434046 0.419431 0.000000
0.378315 0.410727 0.000000
0.315911 0.417526 0.000000
0.265975 0.450950 0.000000
0.217985 0.524525 0.000000
0.183522 0.654449 0.000000
0.192867 0.858238 0.000000
0.326036 0.944376 0.000000
1.000000 0.989664 0.000000
0.000000 0.015079 0.000000
0.526335 0.062958 0.000000
0.765193 0.103003 0.000000
0.745985 0.204609 0.000000
0.757262 0.335548 0.000000
0.731415 0.381345 0.000000
0.698483 0.426867 0.000000
0.661267 0.444254 0.000000
0.619659 0.449446 0.000000
0.580569 0.434046 0.000000
0.539291 0.413419 0.000000
0.497183 0.393978 0.000000
0.449446 0.380341 0.000000
0.388871 0.373808 0.000000
0.320968 0.378358 0.000000
0.264688 0.405597 0.000000
0.206252 0.505408 0.000000
0.168690 0.646402 0.000000
0.180048 0.854235 0.000000
0.307763 0.949065 0.000000
1.000000 0.990054 0.000000
0.000000 0.018879 0.000000
0.445415 0.061613 0.000000
0.706531 0.096413 0.000000
0.722627 0.162558 0.000000
0.732820 0.266544 0.000000
0.716926 0.314068 0.000000
0.693091 0.360357 0.000000
0.660945 0.379782 0.000000
0.626192 0.388871 0.000000
0.589273 0.378315 0.000000
0.548072 0.365054 0.000000
0.499306 0.346483 0.000000
0.444254 0.338733 0.000000
0.379782 0.339055 0.000000
0.308055 0.343345 0.000000
0.249624 0.377306 0.000000
0.200915 0.483028 0.000000
0.153803 0.640739 0.000000
0.167484 0.850562 0.000000
0.283355 0.952774 0.000000
1.000000 0.990440 0.000000
0.000000 0.023478 0.000000
0.367906 0.060488 0.000000
0.616834 0.094427 0.000000
0.680305 0.137032 0.000000
0.697160 0.189750 0.000000
0.694790 0.230134 0.000000
0.683915 0.283894 0.000000
0.656655 0.308055 0.000000
0.621642 0.320968 0.000000
0.582474 0.315911 0.000000
0.537726 0.311163 0.000000
0.483569 0.301220 0.000000
0.426867 0.301517 0.000000
0.360357 0.306909 0.000000
0.283894 0.316085 0.000000
0.225183 0.363576 0.000000
0.191354 0.469067 0.000000
0.140093 0.635845 0.000000
0.154073 0.847685 0.000000
0.266317 0.957073 0.000000
1.000000 0.990862 0.000000
0.000000 0.028098 0.000000
0.309697 0.063335 0.000000
0.502715 0.087101 0.000000
0.600670 0.122707 0.000000
0.612052 0.154817 0.000000
0.629382 0.190629 0.000000
0.636424 0.225183 0.000000
0.622694 0.249624 0.000000
0.594403 0.264688 0.000000
0.549050 0.265975 0.000000
0.495972 0.264297 0.000000
0.435173 0.258275 0.000000
0.381345 0.268585 0.000000
0.314068 0.283074 0.000000
0.230134 0.305210 0.000000
0.190629 0.370618 0.000000
0.174296 0.462291 0.000000
0.128029 0.632356 0.000000
0.138475 0.847453 0.000000
0.260686 0.962767 0.000000
1.000000 0.991267 0.000000
0.000000 0.033970 0.000000
0.239317 0.067438 0.000000
0.347542 0.082519 0.000000
0.495296 0.108520 0.000000
0.535061 0.149699 0.000000
0.537709 0.174296 0.000000
0.530933 0.191354 0.000000
0.516972 0.200915 0.000000
0.494592 0.206252 0.000000
0.475475 0.217985 0.000000
0.423761 0.212125 0.000000
0.379813 0.221731 0.000000
0.335548 0.242738 0.000000
0.266544 0.267180 0.000000
0.189750 0.302840 0.000000
0.154817 0.387948 0.000000
0.149699 0.464939 0.000000
0.117642 0.635880 0.000000
0.121594 0.851092 0.000000
0.260349 0.968819 0.000000
1.000000 0.991745 0.000000
0.000000 0.041180 0.000000
0.189311 0.076358 0.000000
0.277246 0.109635 0.000000
0.341666 0.111835 0.000000
0.364120 0.117642 0.000000
0.367644 0.128029 0.000000
0.364155 0.140093 0.000000
0.359261 0.153803 0.000000
0.353598 0.168690 0.000000
0.345551 0.183522 0.000000
0.311562 0.205871 0.000000
0.250547 0.233629 0.000000
0.204609 0.254015 0.000000
0.162558 0.277373 0.000000
0.137032 0.319695 0.000000
0.122707 0.399330 0.000000
0.108520 0.504704 0.000000
0.111835 0.658334 0.000000
0.097637 0.864636 0.000000
0.280590 0.976702 0.000000
1.000000 0.992425 0.000000
0.000000 0.079857 0.000000
0.049867 0.065102 0.000000
0.104071 0.070946 0.000000
0.135364 0.097637 0.000000
0.148908 0.121594 0.000000
0.152547 0.138475 0.000000
0.152315 0.154073 0.000000
0.149438 0.167484 0.000000
0.145765 0.180048 0.000000
0.141762 0.192867 0.000000
0.129706 0.201262 0.000000
0.110291 0.211012 0.000000
0.103003 0.234807 0.000000
0.096413 0.293469 0.000000
0.094427 0.383166 0.000000
0.087101 0.497285 0.000000
0.082519 0.652458 0.000000
0.109635 0.722754 0.000000
0.070946 0.895929 0.000000
0.330681 0.986511 0.000000
1.000000 0.994493 0.000000
0.000000 0.468253 0.000000
0.004991 0.409959 0.000000
0.013489 0.330681 0.000000
0.023298 0.280590 0.000000
0.031181 0.260349 0.000000
0.037233 0.260686 0.000000
0.042927 0.266317 0.000000
0.047226 0.283355 0.000000
0.050935 0.307763 0.000000
0.055624 0.326036 0.000000
0.059206 0.361041 0.000000
0.061170 0.417276 0.000000
0.062958 0.473665 0.000000
0.061613 0.554585 0.000000
0.060488 0.632094 0.000000
0.063335 0.690303 0.000000
0.067438 0.760683 0.000000
0.076358 0.810689 0.000000
0.065102 0.950133 0.000000
0.409959 0.995009 0.000000
1.000000 0.998207 0.000000
0.000000 1.000000 0.000000
0.001793 1.000000 0.000000
0.005507 1.000000 0.000000
0.007575 1.000000 0.000000
0.008255 1.000000 0.000000
0.008733 1.000000 0.000000
0.009138 1.000000 0.000000
0.009560 1.000000 0.000000
0.009946 1.000000 0.000000
0.010336 1.000000 0.000000
0.010657 1.000000 0.000000
0.012301 1.000000 0.000000
0.015079 1.000000 0.000000
0.018879 1.000000 0.000000
0.023478 1.000000 0.000000
0.028098 1.000000 0.000000
0.033970 1.000000 0.000000
0.041180 1.000000 0.000000
0.079857 1.000000 0.000000
0.468253 1.000000 0.000000
1.000000 1.000000 0.000000
0.000000 0.000000 0.082500
0.531747 0.000000 0.082500
0.920143 0.000000 0.082500
0.958820 0.000000 0.082500
0.966030 0.000000 0.082500
0.971902 0.000000 0.082500
0.976522 0.000000 0.082500
0.981121 0.000000 0.082500
0.984921 0.000000 0.082500
0.987699 0.000000 0.082500
0.989343 0.000000 0.082500
0.989664 0.000000 0.082500
0.990054 0.000000 0.082500
0.990440 0.000000 0.082500
0.990862 0.000000 0.082500
0.991267 0.000000 0.082500
0.991745 0.000000 0.082500
0.992425 0.000000 0.082500
0.994493 0.000000 0.082500
0.998207 0.000000 0.082500
1.000000 0.000000 0.082500
0.000000 0.001793 0.082500
0.590041 0.004991 0.082500
0.934898 0.049867 0.082500
0.923642 0.189311 0.082500
0.932562 0.239317 0.082500
0.936665 0.309697 0.082500
0.939512 0.367906 0.082500
0.938387 0.445415 0.082500
0.937042 0.526335 0.082500
0.938830 0.582724 0.082500
0.940794 0.638959 0.082500
0.944376 0.673964 0.082500
0.949065 0.692237 0.082500
0.952774 0.716645 0.082500
0.957073 0.733683 0.082500
0.962767 0.739314 0.082500
0.968819 0.739651 0.082500
0.976702 0.719410 0.082500
0.986511 0.669319 0.082500
0.995009 0.590041 0.082500
1.000000 0.531747 0.082500
0.000000 0.005507 0.082500
0.669319 0.013489 0.082500
0.929054 0.104071 0.082500
0.890365 0.277246 0.082500
0.917481 0.347542 0.082500
0.912899 0.502715 0.082500
0.905573 0.616834 0.082500
0.903587 0.706531 0.082500
0.896997 0.765193 0.082500
0.889709 0.788988 0.082500
0.870294 0.798738 0.082500
0.858238 0.807133 0.082500
0.854235 0.819952 0.082500
0.850562 0.832516 0.082500
0.847685 0.845927 0.082500
0.847453 0.861525 0.082500
0.851092 0.878406 0.082500
0.864636 0.902363 0.082500
0.895929 0.929054 0.082500
0.950133 0.934898 0.082500
1.000000 0.920143 0.082500
0.000000 0.007575 0.082500
0.719410 0.023298 0.082500
0.902363 0.135364 0.082500
0.888165 0.341666 0.082500
0.891480 0.495296 0.082500
0.877293 0.600670 0.082500
0.862968 0.680305 0.082500
0.837442 0.722627 0.082500
0.795391 0.745985 0.082500
0.749453 0.766371 0.082500
0.688438 0.794129 0.082500
0.654449 0.816478 0.082500
0.646402 0.831310 0.082500
0.640739 0.846197 0.082500
0.635845 0.859907 0.082500
0.632356 0.871971 0.082500
0.635880 0.882358 0.082500
0.658334 0.888165 0.082500
0.722754 0.890365 0.082500
0.810689 0.923642 0.082500
1.000000 0.958820 0.082500
0.000000 0.008255 0.082500
0.739651 0.031181 0.082500
0.878406 0.148908 0.082500
0.882358 0.364120 0.082500
0.850301 0.535061 0.082500
0.845183 0.612052 0.082500
0.810250 0.697160 0.082500
0.733456 0.732820 0.082500
0.664452 0.757262 0.082500
0.620187 0.778269 0.082500
0.576239 0.787875 0.082500
0.524525 0.782015 0.082500
0.505408 0.793748 0.082500
0.483028 0.799085 0.082500
0.469067 0.808646 0.082500
0.462291 0.825704 0.082500
0.464939 0.850301 0.082500
0.504704 0.891480 0.082500
0.652458 0.917481 0.082500
0.760683 0.932562 0.082500
1.000000 0.966030 0.082500
0.000000 0.008733 0.082500
0.739314 0.037233 0.082500
0.861525 0.152547 0.082500
0.871971 0.367644 0.082500
0.825704 0.537709 0.082500
0.809371 0.629382 0.082500
0.769866 0.694790 0.082500
0.685932 0.716926 0.082500
0.618655 0.731415 0.082500
0.564827 0.741725 0.082500
0.504028 0.735703 0.082500
0.450950 0.734025 0.082500
0.405597 0.735312 0.082500
0.377306 0.750376 0.082500
0.363576 0.774817 0.082500
0.370618 0.809371 0.082500
0.387948 0.845183 0.082500
0.399330 0.877293 0.082500
0.497285 0.912899 0.082500
0.690303 0.936665 0.082500
1.000000 0.971902 0.082500
0.000000 0.009138 0.082500
0.733683 0.042927 0.082500
0.845927 0.152315 0.082500
0.859907 0.364155 0.082500
0.808646 0.530933 0.082500
0.774817 0.636424 0.082500
0.716106 0.683915 0.082500
0.639643 0.693091 0.082500
0.573133 0.698483 0.082500
0.516431 0.698780 0.082500
0.462274 0.688837 0.082500
0.417526 0.684089 0.082500
0.378358 0.679032 0.082500
0.343345 0.691945 0.082500
0.316085 0.716106 0.082500
0.305210 0.769866 0.082500
0.302840 0.810250 0.082500
0.319695 0.862968 0.082500
0.383166 0.905573 0.082500
0.632094 0.939512 0.082500
1.000000 0.976522 0.082500
0.000000 0.009560 0.082500
0.716645 0.047226 0.082500
0.832516 0.149438 0.082500
0.846197 0.359261 0.082500
0.799085 0.516972 0.082500
0.750376 0.622694 0.082500
0.691945 0.656655 0.082500
0.620218 0.660945 0.082500
0.555746 0.661267 0.082500
0.500694 0.653517 0.082500
0.451928 0.634946 0.082500
0.410727 0.621685 0.082500
0.373808 0.611129 0.082500
0.339055 0.620218 0.082500
0.306909 0.639643 0.082500
0.283074 0.685932 0.082500
0.267180 0.733456 0.082500
0.277373 0.837442 0.082500
0.293469 0.903587 0.082500
0.554585 0.938387 0.082500
1.000000 0.981121 0.082500
0.000000 0.009946 0.082500
0.692237 0.050935 0.082500
0.819952 0.145765 0.082500
0.831310 0.353598 0.082500
0.793748 0.494592 0.082500
0.735312 0.594403 0.082500
0.679032 0.621642 0.082500
0.611129 0.626192 0.082500
0.550554 0.619659 0.082500
0.502817 0.606022 0.082500
0.460709 0.586581 0.082500
0.419431 0.565954 0.082500
0.380341 0.550554 0.082500
0.338733 0.555746 0.082500
0.301517 0.573133 0.082500
0.268585 0.618655 0.082500
0.242738 0.664452 0.082500
0.254015 0.795391 0.082500
0.234807 0.896997 0.082500
0.473665 0.937042 0.082500
1.000000 0.984921 0.082500
0.000000 0.010336 0.082500
0.673964 0.055624 0.082500
0.807133 0.141762 0.082500
0.816478 0.345551 0.082500
0.782015 0.475475 0.082500
0.734025 0.549050 0.082500
0.684089 0.582474 0.082500
0.621685 0.589273 0.082500
0.565954 0.580569 0.082500
0.519129 0.563284 0.082500
0.476573 0.540889 0.082500
0.436716 0.519129 0.082500
0.393978 0.502817 0.082500
0.346483 0.500694 0.082500
0.301220 0.516431 0.082500
0.258275 0.564827 0.082500
0.221731 0.620187 0.082500
0.233629 0.749453 0.082500
0.211012 0.889709 0.082500
0.417276 0.938830 0.082500
1.000000 0.987699 0.082500
0.000000 0.010657 0.082500
0.638959 0.059206 0.082500
0.798738 0.129706 0.082500
0.794129 0.311562 0.082500
0.787875 0.423761 0.082500
0.735703 0.495972 0.082500
0.688837 0.537726 0.082500
0.634946 0.548072 0.082500
0.586581 0.539291 0.082500
0.540889 0.523427 0.082500
0.500000 0.500000 0.082500
0.459111 0.476573 0.082500
0.413419 0.460709 0.082500
0.365054 0.451928 0.082500
0.311163 0.462274 0.082500
0.264297 0.504028 0.082500
0.212125 0.576239 0.082500
0.205871 0.688438 0.082500
0.201262 0.870294 0.082500
0.361041 0.940794 0.082500
1.000000 0.989343 0.082500
0.000000 0.012301 0.082500
0.582724 0.061170 0.082500
0.788988 0.110291 0.082500
0.766371 0.250547 0.082500
0.778269 0.379813 0.082500
0.741725 0.435173 0.082500
0.698780 0.483569 0.082500
0.653517 0.499306 0.082500
0.606022 0.497183 0.082500
0.563284 0.480871 0.082500
0.523427 0.459111 0.082500
0.480871 0.436716 0.082500
0.434046 0.419431 0.082500
0.378315 0.410727 0.082500
0.315911 0.417526 0.082500
0.265975 0.450950 0.082500
0.217985 0.524525 0.082500
0.183522 0.654449 0.082500
0.192867 0.858238 0.082500
0.326036 0.944376 0.082500
1.000000 0.989664 0.082500
0.000000 0.015079 0.082500
0.526335 0.062958 0.082500
0.765193 0.103003 0.082500
0.745985 0.204609 0.082500
0.757262 0.335548 0.082500
0.731415 0.381345 0.082500
0.698483 0.426867 0.082500
0.661267 0.444254 0.082500
0.619659 0.449446 0.082500
0.580569 0.434046 0.082500
0.539291 0.413419 0.082500
0.497183 0.393978 0.082500
0.449446 0.380341 0.082500
0.388871 0.373808 0.082500
0.320968 0.378358 0.082500
0.264688 0.405597 0.082500
0.206252 0.505408 0.082500
0.168690 0.646402 0.082500
0.180048 0.854235 0.082500
0.307763 0.949065 0.082500
1.000000 0.990054 0.082500
0.000000 0.018879 0.082500
0.445415 0.061613 0.082500
0.706531 0.096413 0.082500
0.722627 0.162558 0.082500
0.732820 0.266544 0.082500
0.716926 0.314068 0.082500
0.693091 0.360357 0.082500
0.660945 0.379782 0.082500
0.626192 0.388871 0.082500
0.589273 0.378315 0.082500
0.548072 0.365054 0.082500
0.499306 0.346483 0.082500
0.444254 0.338733 0.082500
0.379782 0.339055 0.082500
0.308055 0.343345 0.082500
0.249624 0.377306 0.082500
0.200915 0.483028 0.082500
0.153803 0.640739 0.082500
0.167484 0.850562 0.082500
0.283355 0.952774 0.082500
1.000000 0.990440 0.082500
0.000000 0.023478 0.082500
0.367906 0.060488 0.082500
0.616834 0.094427 0.082500
0.680305 0.137032 0.082500