# vtk DataFile Version 2.0
Mesh for Fierro
ASCII 
DATASET UNSTRUCTURED_GRID

POINTS 2205 float
0.000000 0.000000 0.000000
0.533151 0.000000 0.000000
0.776503 0.000000 0.000000
0.837267 0.000000 0.000000
0.879576 0.000000 0.000000
0.902809 0.000000 0.000000
0.920035 0.000000 0.000000
0.933347 0.000000 0.000000
0.943614 0.000000 0.000000
0.951772 0.000000 0.000000
0.958621 0.000000 0.000000
0.964571 0.000000 0.000000
0.969434 0.000000 0.000000
0.973555 0.000000 0.000000
0.977241 0.000000 0.000000
0.980782 0.000000 0.000000
0.984288 0.000000 0.000000
0.987960 0.000000 0.000000
0.991769 0.000000 0.000000
0.995801 0.000000 0.000000
1.000000 0.000000 0.000000
0.000000 0.004199 0.000000
0.530843 0.006785 0.000000
0.769685 0.025584 0.000000
0.832122 0.048074 0.000000
0.874399 0.082943 0.000000
0.896744 0.122470 0.000000
0.913115 0.159682 0.000000
0.924160 0.205127 0.000000
0.932306 0.253188 0.000000
0.938665 0.297588 0.000000
0.944213 0.338895 0.000000
0.949239 0.378311 0.000000
0.953696 0.416450 0.000000
0.958286 0.448330 0.000000
0.962997 0.474823 0.000000
0.968073 0.496735 0.000000
0.973624 0.512482 0.000000
0.979898 0.522361 0.000000
0.986545 0.526073 0.000000
0.993215 0.530843 0.000000
1.000000 0.533151 0.000000
0.000000 0.008231 0.000000
0.526073 0.013455 0.000000
0.756766 0.047716 0.000000
0.824693 0.089769 0.000000
0.864672 0.157700 0.000000
0.884736 0.222987 0.000000
0.897948 0.294370 0.000000
0.904601 0.369383 0.000000
0.906232 0.439806 0.000000
0.906992 0.495969 0.000000
0.906129 0.544796 0.000000
0.903487 0.587056 0.000000
0.899726 0.623739 0.000000
0.898402 0.654266 0.000000
0.900410 0.679977 0.000000
0.906602 0.702355 0.000000
0.917771 0.721172 0.000000
0.933551 0.739276 0.000000
0.952284 0.756766 0.000000
0.974416 0.769685 0.000000
1.000000 0.776503 0.000000
0.000000 0.012040 0.000000
0.522361 0.020102 0.000000
0.739276 0.066449 0.000000
0.814162 0.122074 0.000000
0.845831 0.215144 0.000000
0.865172 0.290393 0.000000
0.872196 0.376107 0.000000
0.868765 0.454292 0.000000
0.858694 0.522947 0.000000
0.849799 0.576052 0.000000
0.837166 0.624855 0.000000
0.825299 0.667041 0.000000
0.814704 0.705427 0.000000
0.812319 0.737667 0.000000
0.817181 0.764453 0.000000
0.829976 0.785844 0.000000
0.850023 0.801995 0.000000
0.877926 0.814162 0.000000
0.910231 0.824693 0.000000
0.951926 0.832122 0.000000
1.000000 0.837267 0.000000
0.000000 0.015712 0.000000
0.512482 0.026376 0.000000
0.721172 0.082229 0.000000
0.801995 0.149977 0.000000
0.821868 0.258451 0.000000
0.842955 0.340502 0.000000
0.837594 0.436454 0.000000
0.823520 0.509966 0.000000
0.801482 0.575110 0.000000
0.782083 0.625899 0.000000
0.758806 0.668639 0.000000
0.741112 0.701583 0.000000
0.724254 0.727741 0.000000
0.715797 0.751083 0.000000
0.714339 0.773683 0.000000
0.721877 0.797424 0.000000
0.741549 0.821868 0.000000
0.784856 0.845831 0.000000
0.842300 0.864672 0.000000
0.917057 0.874399 0.000000
1.000000 0.879576 0.000000
0.000000 0.019218 0.000000
0.496735 0.031927 0.000000
0.702355 0.093398 0.000000
0.785844 0.170024 0.000000
0.797424 0.278123 0.000000
0.818331 0.366444 0.000000
0.803212 0.455125 0.000000
0.781675 0.524424 0.000000
0.752866 0.582934 0.000000
0.724903 0.629281 0.000000
0.693218 0.668008 0.000000
0.662754 0.701181 0.000000
0.634513 0.731417 0.000000
0.620899 0.762215 0.000000
0.619476 0.791122 0.000000
0.633556 0.818331 0.000000
0.659498 0.842955 0.000000
0.709607 0.865172 0.000000
0.777013 0.884736 0.000000
0.877530 0.896744 0.000000
1.000000 0.902809 0.000000
0.000000 0.022759 0.000000
0.474823 0.037003 0.000000
0.679977 0.099590 0.000000
0.764453 0.182819 0.000000
0.773683 0.285661 0.000000
0.791122 0.380524 0.000000
0.767666 0.460075 0.000000
0.740969 0.526024 0.000000
0.704338 0.578736 0.000000
0.670754 0.620491 0.000000
0.633461 0.653909 0.000000
0.600415 0.682697 0.000000
0.570325 0.707813 0.000000
0.550878 0.736988 0.000000
0.539925 0.767666 0.000000
0.544875 0.803212 0.000000
0.563546 0.837594 0.000000
0.623893 0.872196 0.000000
0.705630 0.897948 0.000000
0.840318 0.913115 0.000000
1.000000 0.920035 0.000000
0.000000 0.026445 0.000000
0.448330 0.041714 0.000000
0.654266 0.101598 0.000000
0.737667 0.187681 0.000000
0.751083 0.284203 0.000000
0.762215 0.379101 0.000000
0.736988 0.449122 0.000000
0.705881 0.512031 0.000000
0.665710 0.557492 0.000000
0.628040 0.595323 0.000000
0.587099 0.624039 0.000000
0.548131 0.649405 0.000000
0.512173 0.673690 0.000000
0.487969 0.705881 0.000000
0.473976 0.740969 0.000000
0.475576 0.781675 0.000000
0.490034 0.823520 0.000000
0.545708 0.868765 0.000000
0.630617 0.904601 0.000000
0.794873 0.924160 0.000000
1.000000 0.933347 0.000000
0.000000 0.030566 0.000000
0.416450 0.046304 0.000000
0.623739 0.100274 0.000000
0.705427 0.185296 0.000000
0.727741 0.275746 0.000000
0.731417 0.365487 0.000000
0.707813 0.429675 0.000000
0.673690 0.487827 0.000000
0.631052 0.528499 0.000000
0.590555 0.562356 0.000000
0.547693 0.585969 0.000000
0.508691 0.608816 0.000000
0.471501 0.631052 0.000000
0.442508 0.665710 0.000000
0.421264 0.704338 0.000000
0.417066 0.752866 0.000000
0.424890 0.801482 0.000000
0.477053 0.858694 0.000000
0.560194 0.906232 0.000000
0.746812 0.932306 0.000000
1.000000 0.943614 0.000000
0.000000 0.035429 0.000000
0.378311 0.050761 0.000000
0.587056 0.096513 0.000000
0.667041 0.174701 0.000000
0.701583 0.258888 0.000000
0.701181 0.337246 0.000000
0.682697 0.399585 0.000000
0.649405 0.451869 0.000000
0.608816 0.491309 0.000000
0.566175 0.521718 0.000000
0.521553 0.543854 0.000000
0.478282 0.566175 0.000000
0.437644 0.590555 0.000000
0.404677 0.628040 0.000000
0.379509 0.670754 0.000000
0.370719 0.724903 0.000000
0.374101 0.782083 0.000000
0.423948 0.849799 0.000000
0.504031 0.906992 0.000000
0.702412 0.938665 0.000000
1.000000 0.951772 0.000000
0.000000 0.041379 0.000000
0.338895 0.055787 0.000000
0.544796 0.093871 0.000000
0.624855 0.162834 0.000000
0.668639 0.241194 0.000000
0.668008 0.306782 0.000000
0.653909 0.366539 0.000000
0.624039 0.412901 0.000000
0.585969 0.452307 0.000000
0.543854 0.478447 0.000000
0.500000 0.500000 0.000000
0.456146 0.521553 0.000000
0.414031 0.547693 0.000000
0.375961 0.587099 0.000000
0.346091 0.633461 0.000000
0.331992 0.693218 0.000000
0.331361 0.758806 0.000000
0.375145 0.837166 0.000000
0.455204 0.906129 0.000000
0.661105 0.944213 0.000000
1.000000 0.958621 0.000000
0.000000 0.048228 0.000000
0.297588 0.061335 0.000000
0.495969 0.093008 0.000000
0.576052 0.150201 0.000000
0.625899 0.217917 0.000000
0.629281 0.275097 0.000000
0.620491 0.329246 0.000000
0.595323 0.371960 0.000000
0.562356 0.409445 0.000000
0.521718 0.433825 0.000000
0.478447 0.456146 0.000000
0.433825 0.478282 0.000000
0.391184 0.508691 0.000000
0.350595 0.548131 0.000000
0.317303 0.600415 0.000000
0.298819 0.662754 0.000000
0.298417 0.741112 0.000000
0.332959 0.825299 0.000000
0.412944 0.903487 0.000000
0.621689 0.949239 0.000000
1.000000 0.964571 0.000000
0.000000 0.056386 0.000000
0.253188 0.067694 0.000000
0.439806 0.093768 0.000000
0.522947 0.141306 0.000000
0.575110 0.198518 0.000000
0.582934 0.247134 0.000000
0.578736 0.295662 0.000000
0.557492 0.334290 0.000000
0.528499 0.368948 0.000000
0.491309 0.391184 0.000000
0.452307 0.414031 0.000000
0.409445 0.437644 0.000000
0.368948 0.471501 0.000000
0.326310 0.512173 0.000000
0.292187 0.570325 0.000000
0.268583 0.634513 0.000000
0.272259 0.724254 0.000000
0.294573 0.814704 0.000000
0.376261 0.899726 0.000000
0.583550 0.953696 0.000000
1.000000 0.969434 0.000000
0.000000 0.066653 0.000000
0.205127 0.075840 0.000000
0.369383 0.095399 0.000000
0.454292 0.131235 0.000000
0.509966 0.176480 0.000000
0.524424 0.218325 0.000000
0.526024 0.259031 0.000000
0.512031 0.294119 0.000000
0.487827 0.326310 0.000000
0.451869 0.350595 0.000000
0.412901 0.375961 0.000000
0.371960 0.404677 0.000000
0.334290 0.442508 0.000000
0.294119 0.487969 0.000000
0.263012 0.550878 0.000000
0.237785 0.620899 0.000000
0.248917 0.715797 0.000000
0.262333 0.812319 0.000000
0.345734 0.898402 0.000000
0.551670 0.958286 0.000000
1.000000 0.973555 0.000000
0.000000 0.079965 0.000000
0.159682 0.086885 0.000000
0.294370 0.102052 0.000000
0.376107 0.127804 0.000000
0.436454 0.162406 0.000000
0.455125 0.196788 0.000000
0.460075 0.232334 0.000000
0.449122 0.263012 0.000000
0.429675 0.292187 0.000000
0.399585 0.317303 0.000000
0.366539 0.346091 0.000000
0.329246 0.379509 0.000000
0.295662 0.421264 0.000000
0.259031 0.473976 0.000000
0.232334 0.539925 0.000000
0.208878 0.619476 0.000000
0.226317 0.714339 0.000000
0.235547 0.817181 0.000000
0.320023 0.900410 0.000000
0.525177 0.962997 0.000000
1.000000 0.977241 0.000000
0.000000 0.097191 0.000000
0.122470 0.103256 0.000000
0.222987 0.115264 0.000000
0.290393 0.134828 0.000000
0.340502 0.157045 0.000000
0.366444 0.181669 0.000000
0.380524 0.208878 0.000000
0.379101 0.237785 0.000000
0.365487 0.268583 0.000000
0.337246 0.298819 0.000000
0.306782 0.331992 0.000000
0.275097 0.370719 0.000000
0.247134 0.417066 0.000000
0.218325 0.475576 0.000000
0.196788 0.544875 0.000000
0.181669 0.633556 0.000000
0.202576 0.721877 0.000000
0.214156 0.829976 0.000000
0.297645 0.906602 0.000000
0.503265 0.968073 0.000000
1.000000 0.980782 0.000000
0.000000 0.120424 0.000000
0.082943 0.125601 0.000000
0.157700 0.135328 0.000000
0.215144 0.154169 0.000000
0.258451 0.178132 0.000000
0.278123 0.202576 0.000000
0.285661 0.226317 0.000000
0.284203 0.248917 0.000000
0.275746 0.272259 0.000000
0.258888 0.298417 0.000000
0.241194 0.331361 0.000000
0.217917 0.374101 0.000000
0.198518 0.424890 0.000000
0.176480 0.490034 0.000000
0.162406 0.563546 0.000000
0.157045 0.659498 0.000000
0.178132 0.741549 0.000000
0.198005 0.850023 0.000000
0.278828 0.917771 0.000000
0.487518 0.973624 0.000000
1.000000 0.984288 0.000000
0.000000 0.162733 0.000000
0.048074 0.167878 0.000000
0.089769 0.175307 0.000000
0.122074 0.185838 0.000000
0.149977 0.198005 0.000000
0.170024 0.214156 0.000000
0.182819 0.235547 0.000000
0.187681 0.262333 0.000000
0.185296 0.294573 0.000000
[...]
POINT_DATA 2205 
VECTORS pos float 
0.000000 0.000000 0.000000
0.533151 0.000000 0.000000
0.776503 0.000000 0.000000
0.837267 0.000000 0.000000
0.879576 0.000000 0.000000
0.902809 0.000000 0.000000
0.920035 0.000000 0.000000
0.933347 0.000000 0.000000
0.943614 0.000000 0.000000
0.951772 0.000000 0.000000
0.958621 0.000000 0.000000
0.964571 0.000000 0.000000
0.969434 0.000000 0.000000
0.973555 0.000000 0.000000
0.977241 0.000000 0.000000
0.980782 0.000000 0.000000
0.984288 0.000000 0.000000
0.987960 0.000000 0.000000
0.991769 0.000000 0.000000
0.995801 0.000000 0.000000
1.000000 0.000000 0.000000
0.000000 0.004199 0.000000
0.530843 0.006785 0.000000
0.769685 0.025584 0.000000
0.832122 0.048074 0.000000
0.874399 0.082943 0.000000
0.896744 0.122470 0.000000
0.913115 0.159682 0.000000
0.924160 0.205127 0.000000
0.932306 0.253188 0.000000
0.938665 0.297588 0.000000
0.944213 0.338895 0.000000
0.949239 0.378311 0.000000
0.953696 0.416450 0.000000
0.958286 0.448330 0.000000
0.962997 0.474823 0.000000
0.968073 0.496735 0.000000
0.973624 0.512482 0.000000
0.979898 0.522361 0.000000
0.986545 0.526073 0.000000
0.993215 0.530843 0.000000
1.000000 0.533151 0.000000
0.000000 0.008231 0.000000
0.526073 0.013455 0.000000
0.756766 0.047716 0.000000
0.824693 0.089769 0.000000
0.864672 0.157700 0.000000
0.884736 0.222987 0.000000
0.897948 0.294370 0.000000
0.904601 0.369383 0.000000
0.906232 0.439806 0.000000
0.906992 0.495969 0.000000
0.906129 0.544796 0.000000
0.903487 0.587056 0.000000
0.899726 0.623739 0.000000
0.898402 0.654266 0.000000
0.900410 0.679977 0.000000
0.906602 0.702355 0.000000
0.917771 0.721172 0.000000
0.933551 0.739276 0.000000
0.952284 0.756766 0.000000
0.974416 0.769685 0.000000
1.000000 0.776503 0.000000
0.000000 0.012040 0.000000
0.522361 0.020102 0.000000
0.739276 0.066449 0.000000
0.814162 0.122074 0.000000
0.845831 0.215144 0.000000
0.865172 0.290393 0.000000
0.872196 0.376107 0.000000
0.868765 0.454292 0.000000
0.858694 0.522947 0.000000
0.849799 0.576052 0.000000
0.837166 0.624855 0.000000
0.825299 0.667041 0.000000
0.814704 0.705427 0.000000
0.812319 0.737667 0.000000
0.817181 0.764453 0.000000
0.829976 0.785844 0.000000
0.850023 0.801995 0.000000
0.877926 0.814162 0.000000
0.910231 0.824693 0.000000
0.951926 0.832122 0.000000
1.000000 0.837267 0.000000
0.000000 0.015712 0.000000
0.512482 0.026376 0.000000
0.721172 0.082229 0.000000
0.801995 0.149977 0.000000
0.821868 0.258451 0.000000
0.842955 0.340502 0.000000
0.837594 0.436454 0.000000
0.823520 0.509966 0.000000
0.801482 0.575110 0.000000
0.782083 0.625899 0.000000
0.758806 0.668639 0.000000
0.741112 0.701583 0.000000
0.724254 0.727741 0.000000
0.715797 0.751083 0.000000
0.714339 0.773683 0.000000
0.721877 0.797424 0.000000
0.741549 0.821868 0.000000
0.784856 0.845831 0.000000
0.842300 0.864672 0.000000
0.917057 0.874399 0.000000
1.000000 0.879576 0.000000
0.000000 0.019218 0.000000
0.496735 0.031927 0.000000
0.702355 0.093398 0.000000
0.785844 0.170024 0.000000
0.797424 0.278123 0.000000
0.818331 0.366444 0.000000
0.803212 0.455125 0.000000
0.781675 0.524424 0.000000
0.752866 0.582934 0.000000
0.724903 0.629281 0.000000
0.693218 0.668008 0.000000
0.662754 0.701181 0.000000
0.634513 0.731417 0.000000
0.620899 0.762215 0.000000
0.619476 0.791122 0.000000
0.633556 0.818331 0.000000
0.659498 0.842955 0.000000
0.709607 0.865172 0.000000
0.777013 0.884736 0.000000
0.877530 0.896744 0.000000
1.000000 0.902809 0.000000
0.000000 0.022759 0.000000
0.474823 0.037003 0.000000
0.679977 0.099590 0.000000
0.764453 0.182819 0.000000
0.773683 0.285661 0.000000
0.791122 0.380524 0.000000
0.767666 0.460075 0.000000
0.740969 0.526024 0.000000
0.704338 0.578736 0.000000
0.670754 0.620491 0.000000
0.633461 0.653909 0.000000
0.600415 0.682697 0.000000
0.570325 0.707813 0.000000
0.550878 0.736988 0.000000
0.539925 0.767666 0.000000
0.544875 0.803212 0.000000
0.563546 0.837594 0.000000
0.623893 0.872196 0.000000
0.705630 0.897948 0.000000
0.840318 0.913115 0.000000
1.000000 0.920035 0.000000
0.000000 0.026445 0.000000
0.448330 0.041714 0.000000
0.654266 0.101598 0.000000
0.737667 0.187681 0.000000
0.751083 0.284203 0.000000
0.762215 0.379101 0.000000
0.736988 0.449122 0.000000
0.705881 0.512031 0.000000
0.665710 0.557492 0.000000
0.628040 0.595323 0.000000
0.587099 0.624039 0.000000
0.548131 0.649405 0.000000
0.512173 0.673690 0.000000
0.487969 0.705881 0.000000
0.473976 0.740969 0.000000
0.475576 0.781675 0.000000
0.490034 0.823520 0.000000
0.545708 0.868765 0.000000
0.630617 0.904601 0.000000
0.794873 0.924160 0.000000
1.000000 0.933347 0.000000
0.000000 0.030566 0.000000
0.416450 0.046304 0.000000
0.623739 0.100274 0.000000
0.705427 0.185296 0.000000
0.727741 0.275746 0.000000
0.731417 0.365487 0.000000
0.707813 0.429675 0.000000
0.673690 0.487827 0.000000
0.631052 0.528499 0.000000
0.590555 0.562356 0.000000
0.547693 0.585969 0.000000
0.508691 0.608816 0.000000
0.471501 0.631052 0.000000
0.442508 0.665710 0.000000
0.421264 0.704338 0.000000
0.417066 0.752866 0.000000
0.424890 0.801482 0.000000
0.477053 0.858694 0.000000
0.560194 0.906232 0.000000
0.746812 0.932306 0.000000
1.000000 0.943614 0.000000
0.000000 0.035429 0.000000
0.378311 0.050761 0.000000
0.587056 0.096513 0.000000
0.667041 0.174701 0.000000
0.701583 0.258888 0.000000
0.701181 0.337246 0.000000
0.682697 0.399585 0.000000
0.649405 0.451869 0.000000
0.608816 0.491309 0.000000
0.566175 0.521718 0.000000
0.521553 0.543854 0.000000
0.478282 0.566175 0.000000
0.437644 0.590555 0.000000
0.404677 0.628040 0.000000
0.379509 0.670754 0.000000
0.370719 0.724903 0.000000
0.374101 0.782083 0.000000
0.423948 0.849799 0.000000
0.504031 0.906992 0.000000
0.702412 0.938665 0.000000
1.000000 0.951772 0.000000
0.000000 0.041379 0.000000
0.338895 0.055787 0.000000
0.544796 0.093871 0.000000
0.624855 0.162834 0.000000
0.668639 0.241194 0.000000
0.668008 0.306782 0.000000
0.653909 0.366539 0.000000
0.624039 0.412901 0.000000
0.585969 0.452307 0.000000
0.543854 0.478447 0.000000
0.500000 0.500000 0.000000
0.456146 0.521553 0.000000
0.414031 0.547693 0.000000
0.375961 0.587099 0.000000
0.346091 0.633461 0.000000
0.331992 0.693218 0.000000
0.331361 0.758806 0.000000
0.375145 0.837166 0.000000
0.455204 0.906129 0.000000
0.661105 0.944213 0.000000
1.000000 0.958621 0.000000
0.000000 0.048228 0.000000
0.297588 0.061335 0.000000
0.495969 0.093008 0.000000
0.576052 0.150201 0.000000
0.625899 0.217917 0.000000
0.629281 0.275097 0.000000
0.620491 0.329246 0.000000
0.595323 0.371960 0.000000
0.562356 0.409445 0.000000
0.521718 0.433825 0.000000
0.478447 0.456146 0.000000
0.433825 0.478282 0.000000
0.391184 0.508691 0.000000
0.350595 0.548131 0.000000
0.317303 0.600415 0.000000
0.298819 0.662754 0.000000
0.298417 0.741112 0.000000
0.332959 0.825299 0.000000
0.412944 0.903487 0.000000
0.621689 0.949239 0.000000
1.000000 0.964571 0.000000
0.000000 0.056386 0.000000
0.253188 0.067694 0.000000
0.439806 0.093768 0.000000
0.522947 0.141306 0.000000
0.575110 0.198518 0.000000
0.582934 0.247134 0.000000
0.578736 0.295662 0.000000
0.557492 0.334290 0.000000
0.528499 0.368948 0.000000
0.491309 0.391184 0.000000
0.452307 0.414031 0.000000
0.409445 0.437644 0.000000
0.368948 0.471501 0.000000
0.326310 0.512173 0.000000
0.292187 0.570325 0.000000
0.268583 0.634513 0.000000
0.272259 0.724254 0.000000
0.294573 0.814704 0.000000
0.376261 0.899726 0.000000
0.583550 0.953696 0.000000
1.000000 0.969434 0.000000
0.000000 0.066653 0.000000
0.205127 0.075840 0.000000
0.369383 0.095399 0.000000
0.454292 0.131235 0.000000
0.509966 0.176480 0.000000
0.524424 0.218325 0.000000
0.526024 0.259031 0.000000
0.512031 0.294119 0.000000
0.487827 0.326310 0.000000
0.451869 0.350595 0.000000
0.412901 0.375961 0.000000
0.371960 0.404677 0.000000
0.334290 0.442508 0.000000
0.294119 0.487969 0.000000
0.263012 0.550878 0.000000
0.237785 0.620899 0.000000
0.248917 0.715797 0.000000
0.262333 0.812319 0.000000
0.345734 0.898402 0.000000
0.551670 0.958286 0.000000
1.000000 0.973555 0.000000
0.000000 0.079965 0.000000
0.159682 0.086885 0.000000
0.294370 0.102052 0.000000
0.376107 0.127804 0.000000
0.436454 0.162406 0.000000
0.455125 0.196788 0.000000
0.460075 0.232334 0.000000
0.449122 0.263012 0.000000
0.429675 0.292187 0.000000
0.399585 0.317303 0.000000
0.366539 0.346091 0.000000
0.329246 0.379509 0.000000
0.295662 0.421264 0.000000
0.259031 0.473976 0.000000
0.232334 0.539925 0.000000
0.208878 0.619476 0.000000
0.226317 0.714339 0.000000
0.235547 0.817181 0.000000
0.320023 0.900410 0.000000
0.525177 0.962997 0.000000
1.000000 0.977241 0.000000
0.000000 0.097191 0.000000
0.122470 0.103256 0.000000
0.222987 0.115264 0.000000
0.290393 0.134828 0.000000
0.340502 0.157045 0.000000
0.366444 0.181669 0.000000
0.380524 0.208878 0.000000
0.379101 0.237785 0.000000
0.365487 0.268583 0.000000
0.337246 0.298819 0.000000
0.306782 0.331992 0.000000
0.275097 0.370719 0.000000
0.247134 0.417066 0.000000
0.218325 0.475576 0.000000
0.196788 0.544875 0.000000
0.181669 0.633556 0.000000
0.202576 0.721877 0.000000
0.214156 0.829976 0.000000
0.297645 0.906602 0.000000
0.503265 0.968073 0.000000
1.000000 0.980782 0.000000
0.000000 0.120424 0.000000
0.082943 0.125601 0.000000
0.157700 0.135328 0.000000
0.215144 0.154169 0.000000
0.258451 0.178132 0.000000
0.278123 0.202576 0.000000
0.285661 0.226317 0.000000
0.284203 0.248917 0.000000
0.275746 0.272259 0.000000
0.258888 0.298417 0.000000
0.241194 0.331361 0.000000
0.217917 0.374101 0.000000
0.198518 0.424890 0.000000
0.176480 0.490034 0.000000
0.162406 0.563546 0.000000
0.157045 0.659498 0.000000
0.178132 0.741549 0.000000
0.198005 0.850023 0.000000
0.278828 0.917771 0.000000
0.487518 0.973624 0.000000
1.000000 0.984288 0.000000
0.000000 0.162733 0.000000
0.048074 0.167878 0.000000
0.089769 0.175307 0.000000
0.122074 0.185838 0.000000
0.149977 0.198005 0.000000
0.170024 0.214156 0.000000
0.182819 0.235547 0.000000
0.187681 0.262333 0.000000
0.185296 0.294573 0.000000
0.174701 0.332959 0.000000
0.162834 0.375145 0.000000
0.150201 0.423948 0.000000
0.141306 0.477053 0.000000
0.131235 0.545708 0.000000
0.127804 0.623893 0.000000
0.134828 0.709607 0.000000
0.154169 0.784856 0.000000
0.185838 0.877926 0.000000
0.260724 0.933551 0.000000
0.477639 0.979898 0.000000
1.000000 0.987960 0.000000
0.000000 0.223497 0.000000
0.025584 0.230315 0.000000
0.047716 0.243234 0.000000
0.066449 0.260724 0.000000
0.082229 0.278828 0.000000
0.093398 0.297645 0.000000
0.099590 0.320023 0.000000
0.101598 0.345734 0.000000
0.100274 0.376261 0.000000
0.096513 0.412944 0.000000
0.093871 0.455204 0.000000
0.093008 0.504031 0.000000
0.093768 0.560194 0.000000
0.095399 0.630617 0.000000
0.102052 0.705630 0.000000
0.115264 0.777013 0.000000
0.135328 0.842300 0.000000
0.175307 0.910231 0.000000
0.243234 0.952284 0.000000
0.473927 0.986545 0.000000
1.000000 0.991769 0.000000
0.000000 0.466849 0.000000
0.006785 0.469157 0.000000
0.013455 0.473927 0.000000
0.020102 0.477639 0.000000
0.026376 0.487518 0.000000
0.031927 0.503265 0.000000
0.037003 0.525177 0.000000
0.041714 0.551670 0.000000
0.046304 0.583550 0.000000
0.050761 0.621689 0.000000
0.055787 0.661105 0.000000
0.061335 0.702412 0.000000
0.067694 0.746812 0.000000
0.075840 0.794873 0.000000
0.086885 0.840318 0.000000
0.103256 0.877530 0.000000
0.125601 0.917057 0.000000
0.167878 0.951926 0.000000
0.230315 0.974416 0.000000
0.469157 0.993215 0.000000
1.000000 0.995801 0.000000
0.000000 1.000000 0.000000
0.004199 1.000000 0.000000
0.008231 1.000000 0.000000
0.012040 1.000000 0.000000
0.015712 1.000000 0.000000
0.019218 1.000000 0.000000
0.022759 1.000000 0.000000
0.026445 1.000000 0.000000
0.030566 1.000000 0.000000
0.035429 1.000000 0.000000
0.041379 1.000000 0.000000
0.048228 1.000000 0.000000
0.056386 1.000000 0.000000
0.066653 1.000000 0.000000
0.079965 1.000000 0.000000
0.097191 1.000000 0.000000
0.120424 1.000000 0.000000
0.162733 1.000000 0.000000
0.223497 1.000000 0.000000
0.466849 1.000000 0.000000
1.000000 1.000000 0.000000
0.000000 0.000000 0.082500
0.533151 0.000000 0.082500
0.776503 0.000000 0.082500
0.837267 0.000000 0.082500
0.879576 0.000000 0.082500
0.902809 0.000000 0.082500
0.920035 0.000000 0.082500
0.933347 0.000000 0.082500
0.943614 0.000000 0.082500
0.951772 0.000000 0.082500
0.958621 0.000000 0.082500
0.964571 0.000000 0.082500
0.969434 0.000000 0.082500
0.973555 0.000000 0.082500
0.977241 0.000000 0.082500
0.980782 0.000000 0.082500
0.984288 0.000000 0.082500
0.987960 0.000000 0.082500
0.991769 0.000000 0.082500
0.995801 0.000000 0.082500
1.000000 0.000000 0.082500
0.000000 0.004199 0.082500
0.530843 0.006785 0.082500
0.769685 0.025584 0.082500
0.832122 0.048074 0.082500
0.874399 0.082943 0.082500
0.896744 0.122470 0.082500
0.913115 0.159682 0.082500
0.924160 0.205127 0.082500
0.932306 0.253188 0.082500
0.938665 0.297588 0.082500
0.944213 0.338895 0.082500
0.949239 0.378311 0.082500
0.953696 0.416450 0.082500
0.958286 0.448330 0.082500
0.962997 0.474823 0.082500
0.968073 0.496735 0.082500
0.973624 0.512482 0.082500
0.979898 0.522361 0.082500
0.986545 0.526073 0.082500
0.993215 0.530843 0.082500
1.000000 0.533151 0.082500
0.000000 0.008231 0.082500
0.526073 0.013455 0.082500
0.756766 0.047716 0.082500
0.824693 0.089769 0.082500
0.864672 0.157700 0.082500
0.884736 0.222987 0.082500
0.897948 0.294370 0.082500
0.904601 0.369383 0.082500
0.906232 0.439806 0.082500
0.906992 0.495969 0.082500
0.906129 0.544796 0.082500
0.903487 0.587056 0.082500
0.899726 0.623739 0.082500
0.898402 0.654266 0.082500
0.900410 0.679977 0.082500
0.906602 0.702355 0.082500
0.917771 0.721172 0.082500
0.933551 0.739276 0.082500
0.952284 0.756766 0.082500
0.974416 0.769685 0.082500
1.000000 0.776503 0.082500
0.000000 0.012040 0.082500
0.522361 0.020102 0.082500
0.739276 0.066449 0.082500
0.814162 0.122074 0.082500
0.845831 0.215144 0.082500
0.865172 0.290393 0.082500
0.872196 0.376107 0.082500
0.868765 0.454292 0.082500
0.858694 0.522947 0.082500
0.849799 0.576052 0.082500
0.837166 0.624855 0.082500
0.825299 0.667041 0.082500
0.814704 0.705427 0.082500
0.812319 0.737667 0.082500
0.817181 0.764453 0.082500
0.829976 0.785844 0.082500
0.850023 0.801995 0.082500
0.877926 0.814162 0.082500
0.910231 0.824693 0.082500
0.951926 0.832122 0.082500
1.000000 0.837267 0.082500
0.000000 0.015712 0.082500
0.512482 0.026376 0.082500
0.721172 0.082229 0.082500
0.801995 0.149977 0.082500
0.821868 0.258451 0.082500
0.842955 0.340502 0.082500
0.837594 0.436454 0.082500
0.823520 0.509966 0.082500
0.801482 0.575110 0.082500
0.782083 0.625899 0.082500
0.758806 0.668639 0.082500
0.741112 0.701583 0.082500
0.724254 0.727741 0.082500
0.715797 0.751083 0.082500
0.714339 0.773683 0.082500
0.721877 0.797424 0.082500
0.741549 0.821868 0.082500
0.784856 0.845831 0.082500
0.842300 0.864672 0.082500
0.917057 0.874399 0.082500
1.000000 0.879576 0.082500
0.000000 0.019218 0.082500
0.496735 0.031927 0.082500
0.702355 0.093398 0.082500
0.785844 0.170024 0.082500
0.797424 0.278123 0.082500
0.818331 0.366444 0.082500
0.803212 0.455125 0.082500
0.781675 0.524424 0.082500
0.752866 0.582934 0.082500
0.724903 0.629281 0.082500
0.693218 0.668008 0.082500
0.662754 0.701181 0.082500
0.634513 0.731417 0.082500
0.620899 0.762215 0.082500
0.619476 0.791122 0.082500
0.633556 0.818331 0.082500
0.659498 0.842955 0.082500
0.709607 0.865172 0.082500
0.777013 0.884736 0.082500
0.877530 0.896744 0.082500
1.000000 0.902809 0.082500
0.000000 0.022759 0.082500
0.474823 0.037003 0.082500
0.679977 0.099590 0.082500
0.764453 0.182819 0.082500
0.773683 0.285661 0.082500
0.791122 0.380524 0.082500
0.767666 0.460075 0.082500
0.740969 0.526024 0.082500
0.704338 0.578736 0.082500
0.670754 0.620491 0.082500
0.633461 0.653909 0.082500
0.600415 0.682697 0.082500
0.570325 0.707813 0.082500
0.550878 0.736988 0.082500
0.539925 0.767666 0.082500
0.544875 0.803212 0.082500
0.563546 0.837594 0.082500
0.623893 0.872196 0.082500
0.705630 0.897948 0.082500
0.840318 0.913115 0.082500
1.000000 0.920035 0.082500
0.000000 0.026445 0.082500
0.448330 0.041714 0.082500
0.654266 0.101598 0.082500
0.737667 0.187681 0.082500
0.751083 0.284203 0.082500
0.762215 0.379101 0.082500
0.736988 0.449122 0.082500
0.705881 0.512031 0.082500
0.665710 0.557492 0.082500
0.628040 0.595323 0.082500
0.587099 0.624039 0.082500
0.548131 0.649405 0.082500
0.512173 0.673690 0.082500
0.487969 0.705881 0.082500
0.473976 0.740969 0.082500
0.475576 0.781675 0.082500
0.490034 0.823520 0.082500
0.545708 0.868765 0.082500
0.630617 0.904601 0.082500
0.794873 0.924160 0.082500
1.000000 0.933347 0.082500
0.000000 0.030566 0.082500
0.416450 0.046304 0.082500
0.623739 0.100274 0.082500
0.705427 0.185296 0.082500
0.727741 0.275746 0.082500
0.731417 0.365487 0.082500
0.707813 0.429675 0.082500
0.673690 0.487827 0.082500
0.631052 0.528499 0.082500
0.590555 0.562356 0.082500
0.547693 0.585969 0.082500
0.508691 0.608816 0.082500
0.471501 0.631052 0.082500
0.442508 0.665710 0.082500
0.421264 0.704338 0.082500
0.417066 0.752866 0.082500
0.424890 0.801482 0.082500
0.477053 0.858694 0.082500
0.560194 0.906232 0.082500
0.746812 0.932306 0.082500
1.000000 0.943614 0.082500
0.000000 0.035429 0.082500
0.378311 0.050761 0.082500
0.587056 0.096513 0.082500
0.667041 0.174701 0.082500
0.701583 0.258888 0.082500
0.701181 0.337246 0.082500
0.682697 0.399585 0.082500
0.649405 0.451869 0.082500
0.608816 0.491309 0.082500
0.566175 0.521718 0.082500
0.521553 0.543854 0.082500
0.478282 0.566175 0.082500
0.437644 0.590555 0.082500
0.404677 0.628040 0.082500
0.379509 0.670754 0.082500
0.370719 0.724903 0.082500
0.374101 0.782083 0.082500
0.423948 0.849799 0.082500
0.504031 0.906992 0.082500
0.702412 0.938665 0.082500
1.000000 0.951772 0.082500
0.000000 0.041379 0.082500
0.338895 0.055787 0.082500
0.544796 0.093871 0.082500
0.624855 0.162834 0.082500
0.668639 0.241194 0.082500
0.668008 0.306782 0.082500
0.653909 0.366539 0.082500
0.624039 0.412901 0.082500
0.585969 0.452307 0.082500
0.543854 0.478447 0.082500
0.500000 0.500000 0.082500
0.456146 0.521553 0.082500
0.414031 0.547693 0.082500
0.375961 0.587099 0.082500
0.346091 0.633461 0.082500
0.331992 0.693218 0.082500
0.331361 0.758806 0.082500
0.375145 0.837166 0.082500
0.455204 0.906129 0.082500
0.661105 0.944213 0.082500
1.000000 0.958621 0.082500
0.000000 0.048228 0.082500
0.297588 0.061335 0.082500
0.495969 0.093008 0.082500
0.576052 0.150201 0.082500
0.625899 0.217917 0.082500
0.629281 0.275097 0.082500
0.620491 0.329246 0.082500
0.595323 0.371960 0.082500
0.562356 0.409445 0.082500
0.521718 0.433825 0.082500
0.478447 0.456146 0.082500
0.433825 0.478282 0.082500
0.391184 0.508691 0.082500
0.350595 0.548131 0.082500
0.317303 0.600415 0.082500
0.298819 0.662754 0.082500
0.298417 0.741112 0.082500
0.332959 0.825299 0.082500
0.412944 0.903487 0.082500
0.621689 0.949239 0.082500
1.000000 0.964571 0.082500
0.000000 0.056386 0.082500
0.253188 0.067694 0.082500
0.439806 0.093768 0.082500
0.522947 0.141306 0.082500
0.575110 0.198518 0.082500
0.582934 0.247134 0.082500
0.578736 0.295662 0.082500
0.557492 0.334290 0.082500
0.528499 0.368948 0.082500
0.491309 0.391184 0.082500
0.452307 0.414031 0.082500
0.409445 0.437644 0.082500
0.368948 0.471501 0.082500
0.326310 0.512173 0.082500
0.292187 0.570325 0.082500
0.268583 0.634513 0.082500
0.272259 0.724254 0.082500
0.294573 0.814704 0.082500
0.376261 0.899726 0.082500
0.583550 0.953696 0.082500
1.000000 0.969434 0.082500
0.000000 0.066653 0.082500
0.205127 0.075840 0.082500
0.369383 0.095399 0.082500
0.454292 0.131235 0.082500
0.509966 0.176480 0.082500
0.524424 0.218325 0.082500
0.526024 0.259031 0.082500
0.512031 0.294119 0.082500
0.487827 0.326310 0.082500
0.451869 0.350595 0.082500
0.412901 0.375961 0.082500
0.371960 0.404677 0.082500
0.334290 0.442508 0.082500
0.294119 0.487969 0.082500
0.263012 0.550878 0.082500
0.237785 0.620899 0.082500
0.248917 0.715797 0.082500
0.262333 0.812319 0.082500
0.345734 0.898402 0.082500
0.551670 0.958286 0.082500
1.000000 0.973555 0.082500
0.000000 0.079965 0.082500
0.159682 0.086885 0.082500
0.294370 0.102052 0.082500
0.376107 0.127804 0.082500