# vtk DataFile Version 2.0
Mesh for Fierro
ASCII 
DATASET UNSTRUCTURED_GRID

POINTS 2205 float
0.000000 0.000000 0.000000
0.072240 0.000000 0.000000
0.143964 0.000000 0.000000
0.214575 0.000000 0.000000
0.282818 0.000000 0.000000
0.345964 0.000000 0.000000
0.406309 0.000000 0.000000
0.463406 0.000000 0.000000
0.517784 0.000000 0.000000
0.568834 0.000000 0.000000
0.616938 0.000000 0.000000
0.662068 0.000000 0.000000
0.704918 0.000000 0.000000
0.746667 0.000000 0.000000
0.785960 0.000000 0.000000
0.824236 0.000000 0.000000
0.860690 0.000000 0.000000
0.896249 0.000000 0.000000
0.931216 0.000000 0.000000
0.965447 0.000000 0.000000
1.000000 0.000000 0.000000
0.000000 0.034553 0.000000
0.072014 0.034796 0.000000
0.143485 0.035417 0.000000
0.213852 0.036509 0.000000
0.281911 0.037948 0.000000
0.344878 0.039865 0.000000
0.405055 0.042107 0.000000
0.462090 0.044604 0.000000
0.516433 0.047369 0.000000
0.567388 0.050225 0.000000
0.615502 0.053117 0.000000
0.660640 0.056025 0.000000
0.703578 0.058943 0.000000
0.745365 0.061705 0.000000
0.784713 0.064278 0.000000
0.823170 0.066577 0.000000
0.859684 0.068576 0.000000
0.895548 0.070156 0.000000
0.930657 0.071327 0.000000
0.965204 0.072014 0.000000
1.000000 0.072240 0.000000
0.000000 0.068784 0.000000
0.071327 0.069343 0.000000
0.142132 0.070790 0.000000
0.211832 0.073244 0.000000
0.279317 0.076385 0.000000
0.341624 0.080263 0.000000
0.401331 0.084647 0.000000
0.458048 0.089548 0.000000
0.512210 0.094937 0.000000
0.563047 0.100597 0.000000
0.611049 0.106324 0.000000
0.656229 0.112015 0.000000
0.699344 0.117758 0.000000
0.741437 0.123234 0.000000
0.781105 0.128242 0.000000
0.820067 0.132763 0.000000
0.856973 0.136764 0.000000
0.893590 0.139867 0.000000
0.929210 0.142132 0.000000
0.964583 0.143485 0.000000
1.000000 0.143964 0.000000
0.000000 0.103751 0.000000
0.070156 0.104452 0.000000
0.139867 0.106410 0.000000
0.208608 0.109727 0.000000
0.275172 0.114184 0.000000
0.336690 0.120073 0.000000
0.395638 0.126796 0.000000
0.451823 0.134284 0.000000
0.505628 0.142321 0.000000
0.556130 0.150729 0.000000
0.604018 0.159332 0.000000
0.649220 0.167810 0.000000
0.692530 0.176290 0.000000
0.735078 0.184330 0.000000
0.775220 0.191732 0.000000
0.814883 0.198336 0.000000
0.852321 0.204027 0.000000
0.890273 0.208608 0.000000
0.926756 0.211832 0.000000
0.963491 0.213852 0.000000
1.000000 0.214575 0.000000
0.000000 0.139310 0.000000
0.068576 0.140316 0.000000
0.136764 0.143027 0.000000
0.204027 0.147679 0.000000
0.269357 0.153560 0.000000
0.329636 0.161035 0.000000
0.387626 0.169602 0.000000
0.443303 0.179208 0.000000
0.496815 0.189742 0.000000
0.546846 0.200692 0.000000
0.594418 0.211869 0.000000
0.639682 0.222896 0.000000
0.683343 0.233865 0.000000
0.726464 0.244119 0.000000
0.767334 0.253672 0.000000
0.807956 0.262162 0.000000
0.846440 0.269357 0.000000
0.885816 0.275172 0.000000
0.923615 0.279317 0.000000
0.962052 0.281911 0.000000
1.000000 0.282818 0.000000
0.000000 0.175764 0.000000
0.066577 0.176830 0.000000
0.132763 0.179933 0.000000
0.198336 0.185117 0.000000
0.262162 0.192044 0.000000
0.320956 0.200974 0.000000
0.377735 0.211226 0.000000
0.432685 0.222680 0.000000
0.485801 0.235032 0.000000
0.535265 0.247905 0.000000
0.582486 0.261079 0.000000
0.627838 0.274100 0.000000
0.671835 0.287075 0.000000
0.715619 0.299334 0.000000
0.757435 0.310739 0.000000
0.799026 0.320956 0.000000
0.838965 0.329636 0.000000
0.879927 0.336690 0.000000
0.919737 0.341624 0.000000
0.960135 0.344878 0.000000
1.000000 0.345964 0.000000
0.000000 0.214040 0.000000
0.064278 0.215287 0.000000
0.128242 0.218895 0.000000
0.191732 0.224780 0.000000
0.253672 0.232666 0.000000
0.310739 0.242565 0.000000
0.366085 0.253920 0.000000
0.420033 0.266683 0.000000
0.472512 0.280546 0.000000
0.521394 0.295082 0.000000
0.568470 0.309907 0.000000
0.613982 0.324615 0.000000
0.658425 0.339260 0.000000
0.703063 0.353161 0.000000
0.746080 0.366085 0.000000
0.788774 0.377735 0.000000
0.830398 0.387626 0.000000
0.873204 0.395638 0.000000
0.915353 0.401331 0.000000
0.957893 0.405055 0.000000
1.000000 0.406309 0.000000
0.000000 0.253333 0.000000
0.061705 0.254635 0.000000
0.123234 0.258563 0.000000
0.184330 0.264922 0.000000
0.244119 0.273536 0.000000
0.299334 0.284381 0.000000
0.353161 0.296937 0.000000
0.405950 0.311032 0.000000
0.457685 0.326302 0.000000
0.506028 0.342268 0.000000
0.552821 0.358602 0.000000
0.598459 0.374792 0.000000
0.643320 0.390795 0.000000
0.688968 0.405950 0.000000
0.733317 0.420033 0.000000
0.777320 0.432685 0.000000
0.820792 0.443303 0.000000
0.865716 0.451823 0.000000
0.910452 0.458048 0.000000
0.955396 0.462090 0.000000
1.000000 0.463406 0.000000
0.000000 0.295082 0.000000
0.058943 0.296422 0.000000
0.117758 0.300656 0.000000
0.176290 0.307470 0.000000
0.233865 0.316657 0.000000
0.287075 0.328165 0.000000
0.339260 0.341575 0.000000
0.390795 0.356680 0.000000
0.441765 0.373023 0.000000
0.489333 0.390125 0.000000
0.535876 0.407584 0.000000
0.581661 0.424847 0.000000
0.626977 0.441765 0.000000
0.673698 0.457685 0.000000
0.719454 0.472512 0.000000
0.764968 0.485801 0.000000
0.810258 0.496815 0.000000
0.857679 0.505628 0.000000
0.905063 0.512210 0.000000
0.952631 0.516433 0.000000
1.000000 0.517784 0.000000
0.000000 0.337932 0.000000
0.056025 0.339360 0.000000
0.112015 0.343771 0.000000
0.167810 0.350780 0.000000
0.222896 0.360318 0.000000
0.274100 0.372162 0.000000
0.324615 0.386018 0.000000
0.374792 0.401541 0.000000
0.424847 0.418339 0.000000
0.471814 0.435914 0.000000
0.518122 0.453896 0.000000
0.564086 0.471814 0.000000
0.609875 0.489333 0.000000
0.657732 0.506028 0.000000
0.704918 0.521394 0.000000
0.752095 0.535265 0.000000
0.799308 0.546846 0.000000
0.849271 0.556130 0.000000
0.899403 0.563047 0.000000
0.949775 0.567388 0.000000
1.000000 0.568834 0.000000
0.000000 0.383062 0.000000
0.053117 0.384498 0.000000
0.106324 0.388951 0.000000
0.159332 0.395982 0.000000
0.211869 0.405582 0.000000
0.261079 0.417514 0.000000
0.309907 0.431530 0.000000
0.358602 0.447179 0.000000
0.407584 0.464124 0.000000
0.453896 0.481878 0.000000
0.500000 0.500000 0.000000
0.546104 0.518122 0.000000
0.592416 0.535876 0.000000
0.641398 0.552821 0.000000
0.690093 0.568470 0.000000
0.738921 0.582486 0.000000
0.788131 0.594418 0.000000
0.840668 0.604018 0.000000
0.893676 0.611049 0.000000
0.946883 0.615502 0.000000
1.000000 0.616938 0.000000
0.000000 0.431166 0.000000
0.050225 0.432612 0.000000
0.100597 0.436953 0.000000
0.150729 0.443870 0.000000
0.200692 0.453154 0.000000
0.247905 0.464735 0.000000
0.295082 0.478606 0.000000
0.342268 0.493972 0.000000
0.390125 0.510667 0.000000
0.435914 0.528186 0.000000
0.481878 0.546104 0.000000
0.528186 0.564086 0.000000
0.575153 0.581661 0.000000
0.625208 0.598459 0.000000
0.675385 0.613982 0.000000
0.725900 0.627838 0.000000
0.777104 0.639682 0.000000
0.832190 0.649220 0.000000
0.887985 0.656229 0.000000
0.943975 0.660640 0.000000
1.000000 0.662068 0.000000
0.000000 0.482216 0.000000
0.047369 0.483567 0.000000
0.094937 0.487790 0.000000
0.142321 0.494372 0.000000
0.189742 0.503185 0.000000
0.235032 0.514199 0.000000
0.280546 0.527488 0.000000
0.326302 0.542315 0.000000
0.373023 0.558235 0.000000
0.418339 0.575153 0.000000
0.464124 0.592416 0.000000
0.510667 0.609875 0.000000
0.558235 0.626977 0.000000
0.609205 0.643320 0.000000
0.660740 0.658425 0.000000
0.712925 0.671835 0.000000
0.766135 0.683343 0.000000
0.823710 0.692530 0.000000
0.882242 0.699344 0.000000
0.941057 0.703578 0.000000
1.000000 0.704918 0.000000
0.000000 0.536594 0.000000
0.044604 0.537910 0.000000
0.089548 0.541952 0.000000
0.134284 0.548177 0.000000
0.179208 0.556697 0.000000
0.222680 0.567315 0.000000
0.266683 0.579967 0.000000
0.311032 0.594050 0.000000
0.356680 0.609205 0.000000
0.401541 0.625208 0.000000
0.447179 0.641398 0.000000
0.493972 0.657732 0.000000
0.542315 0.673698 0.000000
0.594050 0.688968 0.000000
0.646839 0.703063 0.000000
0.700666 0.715619 0.000000
0.755881 0.726464 0.000000
0.815670 0.735078 0.000000
0.876766 0.741437 0.000000
0.938295 0.745365 0.000000
1.000000 0.746667 0.000000
0.000000 0.593691 0.000000
0.042107 0.594945 0.000000
0.084647 0.598669 0.000000
0.126796 0.604362 0.000000
0.169602 0.612374 0.000000
0.211226 0.622265 0.000000
0.253920 0.633915 0.000000
0.296937 0.646839 0.000000
0.341575 0.660740 0.000000
0.386018 0.675385 0.000000
0.431530 0.690093 0.000000
0.478606 0.704918 0.000000
0.527488 0.719454 0.000000
0.579967 0.733317 0.000000
0.633915 0.746080 0.000000
0.689261 0.757435 0.000000
0.746328 0.767334 0.000000
0.808268 0.775220 0.000000
0.871758 0.781105 0.000000
0.935722 0.784713 0.000000
1.000000 0.785960 0.000000
0.000000 0.654036 0.000000
0.039865 0.655122 0.000000
0.080263 0.658376 0.000000
0.120073 0.663310 0.000000
0.161035 0.670364 0.000000
0.200974 0.679044 0.000000
0.242565 0.689261 0.000000
0.284381 0.700666 0.000000
0.328165 0.712925 0.000000
0.372162 0.725900 0.000000
0.417514 0.738921 0.000000
0.464735 0.752095 0.000000
0.514199 0.764968 0.000000
0.567315 0.777320 0.000000
0.622265 0.788774 0.000000
0.679044 0.799026 0.000000
0.737838 0.807956 0.000000
0.801664 0.814883 0.000000
0.867237 0.820067 0.000000
0.933423 0.823170 0.000000
1.000000 0.824236 0.000000
0.000000 0.717182 0.000000
0.037948 0.718089 0.000000
0.076385 0.720683 0.000000
0.114184 0.724828 0.000000
0.153560 0.730643 0.000000
0.192044 0.737838 0.000000
0.232666 0.746328 0.000000
0.273536 0.755881 0.000000
0.316657 0.766135 0.000000
0.360318 0.777104 0.000000
0.405582 0.788131 0.000000
0.453154 0.799308 0.000000
0.503185 0.810258 0.000000
0.556697 0.820792 0.000000
0.612374 0.830398 0.000000
0.670364 0.838965 0.000000
0.730643 0.846440 0.000000
0.795973 0.852321 0.000000
0.863236 0.856973 0.000000
0.931424 0.859684 0.000000
1.000000 0.860690 0.000000
0.000000 0.785425 0.000000
0.036509 0.786148 0.000000
0.073244 0.788168 0.000000
0.109727 0.791392 0.000000
0.147679 0.795973 0.000000
0.185117 0.801664 0.000000
0.224780 0.808268 0.000000
0.264922 0.815670 0.000000
0.307470 0.823710 0.000000
[...]
POINT_DATA 2205 
VECTORS pos float 
0.000000 0.000000 0.000000
0.072240 0.000000 0.000000
0.143964 0.000000 0.000000
0.214575 0.000000 0.000000
0.282818 0.000000 0.000000
0.345964 0.000000 0.000000
0.406309 0.000000 0.000000
0.463406 0.000000 0.000000
0.517784 0.000000 0.000000
0.568834 0.000000 0.000000
0.616938 0.000000 0.000000
0.662068 0.000000 0.000000
0.704918 0.000000 0.000000
0.746667 0.000000 0.000000
0.785960 0.000000 0.000000
0.824236 0.000000 0.000000
0.860690 0.000000 0.000000
0.896249 0.000000 0.000000
0.931216 0.000000 0.000000
0.965447 0.000000 0.000000
1.000000 0.000000 0.000000
0.000000 0.034553 0.000000
0.072014 0.034796 0.000000
0.143485 0.035417 0.000000
0.213852 0.036509 0.000000
0.281911 0.037948 0.000000
0.344878 0.039865 0.000000
0.405055 0.042107 0.000000
0.462090 0.044604 0.000000
0.516433 0.047369 0.000000
0.567388 0.050225 0.000000
0.615502 0.053117 0.000000
0.660640 0.056025 0.000000
0.703578 0.058943 0.000000
0.745365 0.061705 0.000000
0.784713 0.064278 0.000000
0.823170 0.066577 0.000000
0.859684 0.068576 0.000000
0.895548 0.070156 0.000000
0.930657 0.071327 0.000000
0.965204 0.072014 0.000000
1.000000 0.072240 0.000000
0.000000 0.068784 0.000000
0.071327 0.069343 0.000000
0.142132 0.070790 0.000000
0.211832 0.073244 0.000000
0.279317 0.076385 0.000000
0.341624 0.080263 0.000000
0.401331 0.084647 0.000000
0.458048 0.089548 0.000000
0.512210 0.094937 0.000000
0.563047 0.100597 0.000000
0.611049 0.106324 0.000000
0.656229 0.112015 0.000000
0.699344 0.117758 0.000000
0.741437 0.123234 0.000000
0.781105 0.128242 0.000000
0.820067 0.132763 0.000000
0.856973 0.136764 0.000000
0.893590 0.139867 0.000000
0.929210 0.142132 0.000000
0.964583 0.143485 0.000000
1.000000 0.143964 0.000000
0.000000 0.103751 0.000000
0.070156 0.104452 0.000000
0.139867 0.106410 0.000000
0.208608 0.109727 0.000000
0.275172 0.114184 0.000000
0.336690 0.120073 0.000000
0.395638 0.126796 0.000000
0.451823 0.134284 0.000000
0.505628 0.142321 0.000000
0.556130 0.150729 0.000000
0.604018 0.159332 0.000000
0.649220 0.167810 0.000000
0.692530 0.176290 0.000000
0.735078 0.184330 0.000000
0.775220 0.191732 0.000000
0.814883 0.198336 0.000000
0.852321 0.204027 0.000000
0.890273 0.208608 0.000000
0.926756 0.211832 0.000000
0.963491 0.213852 0.000000
1.000000 0.214575 0.000000
0.000000 0.139310 0.000000
0.068576 0.140316 0.000000
0.136764 0.143027 0.000000
0.204027 0.147679 0.000000
0.269357 0.153560 0.000000
0.329636 0.161035 0.000000
0.387626 0.169602 0.000000
0.443303 0.179208 0.000000
0.496815 0.189742 0.000000
0.546846 0.200692 0.000000
0.594418 0.211869 0.000000
0.639682 0.222896 0.000000
0.683343 0.233865 0.000000
0.726464 0.244119 0.000000
0.767334 0.253672 0.000000
0.807956 0.262162 0.000000
0.846440 0.269357 0.000000
0.885816 0.275172 0.000000
0.923615 0.279317 0.000000
0.962052 0.281911 0.000000
1.000000 0.282818 0.000000
0.000000 0.175764 0.000000
0.066577 0.176830 0.000000
0.132763 0.179933 0.000000
0.198336 0.185117 0.000000
0.262162 0.192044 0.000000
0.320956 0.200974 0.000000
0.377735 0.211226 0.000000
0.432685 0.222680 0.000000
0.485801 0.235032 0.000000
0.535265 0.247905 0.000000
0.582486 0.261079 0.000000
0.627838 0.274100 0.000000
0.671835 0.287075 0.000000
0.715619 0.299334 0.000000
0.757435 0.310739 0.000000
0.799026 0.320956 0.000000
0.838965 0.329636 0.000000
0.879927 0.336690 0.000000
0.919737 0.341624 0.000000
0.960135 0.344878 0.000000
1.000000 0.345964 0.000000
0.000000 0.214040 0.000000
0.064278 0.215287 0.000000
0.128242 0.218895 0.000000
0.191732 0.224780 0.000000
0.253672 0.232666 0.000000
0.310739 0.242565 0.000000
0.366085 0.253920 0.000000
0.420033 0.266683 0.000000
0.472512 0.280546 0.000000
0.521394 0.295082 0.000000
0.568470 0.309907 0.000000
0.613982 0.324615 0.000000
0.658425 0.339260 0.000000
0.703063 0.353161 0.000000
0.746080 0.366085 0.000000
0.788774 0.377735 0.000000
0.830398 0.387626 0.000000
0.873204 0.395638 0.000000
0.915353 0.401331 0.000000
0.957893 0.405055 0.000000
1.000000 0.406309 0.000000
0.000000 0.253333 0.000000
0.061705 0.254635 0.000000
0.123234 0.258563 0.000000
0.184330 0.264922 0.000000
0.244119 0.273536 0.000000
0.299334 0.284381 0.000000
0.353161 0.296937 0.000000
0.405950 0.311032 0.000000
0.457685 0.326302 0.000000
0.506028 0.342268 0.000000
0.552821 0.358602 0.000000
0.598459 0.374792 0.000000
0.643320 0.390795 0.000000
0.688968 0.405950 0.000000
0.733317 0.420033 0.000000
0.777320 0.432685 0.000000
0.820792 0.443303 0.000000
0.865716 0.451823 0.000000
0.910452 0.458048 0.000000
0.955396 0.462090 0.000000
1.000000 0.463406 0.000000
0.000000 0.295082 0.000000
0.058943 0.296422 0.000000
0.117758 0.300656 0.000000
0.176290 0.307470 0.000000
0.233865 0.316657 0.000000
0.287075 0.328165 0.000000
0.339260 0.341575 0.000000
0.390795 0.356680 0.000000
0.441765 0.373023 0.000000
0.489333 0.390125 0.000000
0.535876 0.407584 0.000000
0.581661 0.424847 0.000000
0.626977 0.441765 0.000000
0.673698 0.457685 0.000000
0.719454 0.472512 0.000000
0.764968 0.485801 0.000000
0.810258 0.496815 0.000000
0.857679 0.505628 0.000000
0.905063 0.512210 0.000000
0.952631 0.516433 0.000000
1.000000 0.517784 0.000000
0.000000 0.337932 0.000000
0.056025 0.339360 0.000000
0.112015 0.343771 0.000000
0.167810 0.350780 0.000000
0.222896 0.360318 0.000000
0.274100 0.372162 0.000000
0.324615 0.386018 0.000000
0.374792 0.401541 0.000000
0.424847 0.418339 0.000000
0.471814 0.435914 0.000000
0.518122 0.453896 0.000000
0.564086 0.471814 0.000000
0.609875 0.489333 0.000000
0.657732 0.506028 0.000000
0.704918 0.521394 0.000000
0.752095 0.535265 0.000000
0.799308 0.546846 0.000000
0.849271 0.556130 0.000000
0.899403 0.563047 0.000000
0.949775 0.567388 0.000000
1.000000 0.568834 0.000000
0.000000 0.383062 0.000000
0.053117 0.384498 0.000000
0.106324 0.388951 0.000000
0.159332 0.395982 0.000000
0.211869 0.405582 0.000000
0.261079 0.417514 0.000000
0.309907 0.431530 0.000000
0.358602 0.447179 0.000000
0.407584 0.464124 0.000000
0.453896 0.481878 0.000000
0.500000 0.500000 0.000000
0.546104 0.518122 0.000000
0.592416 0.535876 0.000000
0.641398 0.552821 0.000000
0.690093 0.568470 0.000000
0.738921 0.582486 0.000000
0.788131 0.594418 0.000000
0.840668 0.604018 0.000000
0.893676 0.611049 0.000000
0.946883 0.615502 0.000000
1.000000 0.616938 0.000000
0.000000 0.431166 0.000000
0.050225 0.432612 0.000000
0.100597 0.436953 0.000000
0.150729 0.443870 0.000000
0.200692 0.453154 0.000000
0.247905 0.464735 0.000000
0.295082 0.478606 0.000000
0.342268 0.493972 0.000000
0.390125 0.510667 0.000000
0.435914 0.528186 0.000000
0.481878 0.546104 0.000000
0.528186 0.564086 0.000000
0.575153 0.581661 0.000000
0.625208 0.598459 0.000000
0.675385 0.613982 0.000000
0.725900 0.627838 0.000000
0.777104 0.639682 0.000000
0.832190 0.649220 0.000000
0.887985 0.656229 0.000000
0.943975 0.660640 0.000000
1.000000 0.662068 0.000000
0.000000 0.482216 0.000000
0.047369 0.483567 0.000000
0.094937 0.487790 0.000000
0.142321 0.494372 0.000000
0.189742 0.503185 0.000000
0.235032 0.514199 0.000000
0.280546 0.527488 0.000000
0.326302 0.542315 0.000000
0.373023 0.558235 0.000000
0.418339 0.575153 0.000000
0.464124 0.592416 0.000000
0.510667 0.609875 0.000000
0.558235 0.626977 0.000000
0.609205 0.643320 0.000000
0.660740 0.658425 0.000000
0.712925 0.671835 0.000000
0.766135 0.683343 0.000000
0.823710 0.692530 0.000000
0.882242 0.699344 0.000000
0.941057 0.703578 0.000000
1.000000 0.704918 0.000000
0.000000 0.536594 0.000000
0.044604 0.537910 0.000000
0.089548 0.541952 0.000000
0.134284 0.548177 0.000000
0.179208 0.556697 0.000000
0.222680 0.567315 0.000000
0.266683 0.579967 0.000000
0.311032 0.594050 0.000000
0.356680 0.609205 0.000000
0.401541 0.625208 0.000000
0.447179 0.641398 0.000000
0.493972 0.657732 0.000000
0.542315 0.673698 0.000000
0.594050 0.688968 0.000000
0.646839 0.703063 0.000000
0.700666 0.715619 0.000000
0.755881 0.726464 0.000000
0.815670 0.735078 0.000000
0.876766 0.741437 0.000000
0.938295 0.745365 0.000000
1.000000 0.746667 0.000000
0.000000 0.593691 0.000000
0.042107 0.594945 0.000000
0.084647 0.598669 0.000000
0.126796 0.604362 0.000000
0.169602 0.612374 0.000000
0.211226 0.622265 0.000000
0.253920 0.633915 0.000000
0.296937 0.646839 0.000000
0.341575 0.660740 0.000000
0.386018 0.675385 0.000000
0.431530 0.690093 0.000000
0.478606 0.704918 0.000000
0.527488 0.719454 0.000000
0.579967 0.733317 0.000000
0.633915 0.746080 0.000000
0.689261 0.757435 0.000000
0.746328 0.767334 0.000000
0.808268 0.775220 0.000000
0.871758 0.781105 0.000000
0.935722 0.784713 0.000000
1.000000 0.785960 0.000000
0.000000 0.654036 0.000000
0.039865 0.655122 0.000000
0.080263 0.658376 0.000000
0.120073 0.663310 0.000000
0.161035 0.670364 0.000000
0.200974 0.679044 0.000000
0.242565 0.689261 0.000000
0.284381 0.700666 0.000000
0.328165 0.712925 0.000000
0.372162 0.725900 0.000000
0.417514 0.738921 0.000000
0.464735 0.752095 0.000000
0.514199 0.764968 0.000000
0.567315 0.777320 0.000000
0.622265 0.788774 0.000000
0.679044 0.799026 0.000000
0.737838 0.807956 0.000000
0.801664 0.814883 0.000000
0.867237 0.820067 0.000000
0.933423 0.823170 0.000000
1.000000 0.824236 0.000000
0.000000 0.717182 0.000000
0.037948 0.718089 0.000000
0.076385 0.720683 0.000000
0.114184 0.724828 0.000000
0.153560 0.730643 0.000000
0.192044 0.737838 0.000000
0.232666 0.746328 0.000000
0.273536 0.755881 0.000000
0.316657 0.766135 0.000000
0.360318 0.777104 0.000000
0.405582 0.788131 0.000000
0.453154 0.799308 0.000000
0.503185 0.810258 0.000000
0.556697 0.820792 0.000000
0.612374 0.830398 0.000000
0.670364 0.838965 0.000000
0.730643 0.846440 0.000000
0.795973 0.852321 0.000000
0.863236 0.856973 0.000000
0.931424 0.859684 0.000000
1.000000 0.860690 0.000000
0.000000 0.785425 0.000000
0.036509 0.786148 0.000000
0.073244 0.788168 0.000000
0.109727 0.791392 0.000000
0.147679 0.795973 0.000000
0.185117 0.801664 0.000000
0.224780 0.808268 0.000000
0.264922 0.815670 0.000000
0.307470 0.823710 0.000000
0.350780 0.832190 0.000000
0.395982 0.840668 0.000000
0.443870 0.849271 0.000000
0.494372 0.857679 0.000000
0.548177 0.865716 0.000000
0.604362 0.873204 0.000000
0.663310 0.879927 0.000000
0.724828 0.885816 0.000000
0.791392 0.890273 0.000000
0.860133 0.893590 0.000000
0.929844 0.895548 0.000000
1.000000 0.896249 0.000000
0.000000 0.856036 0.000000
0.035417 0.856515 0.000000
0.070790 0.857868 0.000000
0.106410 0.860133 0.000000
0.143027 0.863236 0.000000
0.179933 0.867237 0.000000
0.218895 0.871758 0.000000
0.258563 0.876766 0.000000
0.300656 0.882242 0.000000
0.343771 0.887985 0.000000
0.388951 0.893676 0.000000
0.436953 0.899403 0.000000
0.487790 0.905063 0.000000
0.541952 0.910452 0.000000
0.598669 0.915353 0.000000
0.658376 0.919737 0.000000
0.720683 0.923615 0.000000
0.788168 0.926756 0.000000
0.857868 0.929210 0.000000
0.928673 0.930657 0.000000
1.000000 0.931216 0.000000
0.000000 0.927760 0.000000
0.034796 0.927986 0.000000
0.069343 0.928673 0.000000
0.104452 0.929844 0.000000
0.140316 0.931424 0.000000
0.176830 0.933423 0.000000
0.215287 0.935722 0.000000
0.254635 0.938295 0.000000
0.296422 0.941057 0.000000
0.339360 0.943975 0.000000
0.384498 0.946883 0.000000
0.432612 0.949775 0.000000
0.483567 0.952631 0.000000
0.537910 0.955396 0.000000
0.594945 0.957893 0.000000
0.655122 0.960135 0.000000
0.718089 0.962052 0.000000
0.786148 0.963491 0.000000
0.856515 0.964583 0.000000
0.927986 0.965204 0.000000
1.000000 0.965447 0.000000
0.000000 1.000000 0.000000
0.034553 1.000000 0.000000
0.068784 1.000000 0.000000
0.103751 1.000000 0.000000
0.139310 1.000000 0.000000
0.175764 1.000000 0.000000
0.214040 1.000000 0.000000
0.253333 1.000000 0.000000
0.295082 1.000000 0.000000
0.337932 1.000000 0.000000
0.383062 1.000000 0.000000
0.431166 1.000000 0.000000
0.482216 1.000000 0.000000
0.536594 1.000000 0.000000
0.593691 1.000000 0.000000
0.654036 1.000000 0.000000
0.717182 1.000000 0.000000
0.785425 1.000000 0.000000
0.856036 1.000000 0.000000
0.927760 1.000000 0.000000
1.000000 1.000000 0.000000
0.000000 0.000000 0.082500
0.072240 0.000000 0.082500
0.143964 0.000000 0.082500
0.214575 0.000000 0.082500
0.282818 0.000000 0.082500
0.345964 0.000000 0.082500
0.406309 0.000000 0.082500
0.463406 0.000000 0.082500
0.517784 0.000000 0.082500
0.568834 0.000000 0.082500
0.616938 0.000000 0.082500
0.662068 0.000000 0.082500
0.704918 0.000000 0.082500
0.746667 0.000000 0.082500
0.785960 0.000000 0.082500
0.824236 0.000000 0.082500
0.860690 0.000000 0.082500
0.896249 0.000000 0.082500
0.931216 0.000000 0.082500
0.965447 0.000000 0.082500
1.000000 0.000000 0.082500
0.000000 0.034553 0.082500
0.072014 0.034796 0.082500
0.143485 0.035417 0.082500
0.213852 0.036509 0.082500
0.281911 0.037948 0.082500
0.344878 0.039865 0.082500
0.405055 0.042107 0.082500
0.462090 0.044604 0.082500
0.516433 0.047369 0.082500
0.567388 0.050225 0.082500
0.615502 0.053117 0.082500
0.660640 0.056025 0.082500
0.703578 0.058943 0.082500
0.745365 0.061705 0.082500
0.784713 0.064278 0.082500
0.823170 0.066577 0.082500
0.859684 0.068576 0.082500
0.895548 0.070156 0.082500
0.930657 0.071327 0.082500
0.965204 0.072014 0.082500
1.000000 0.072240 0.082500
0.000000 0.068784 0.082500
0.071327 0.069343 0.082500
0.142132 0.070790 0.082500
0.211832 0.073244 0.082500
0.279317 0.076385 0.082500
0.341624 0.080263 0.082500
0.401331 0.084647 0.082500
0.458048 0.089548 0.082500
0.512210 0.094937 0.082500
0.563047 0.100597 0.082500
0.611049 0.106324 0.082500
0.656229 0.112015 0.082500
0.699344 0.117758 0.082500
0.741437 0.123234 0.082500
0.781105 0.128242 0.082500
0.820067 0.132763 0.082500
0.856973 0.136764 0.082500
0.893590 0.139867 0.082500
0.929210 0.142132 0.082500
0.964583 0.143485 0.082500
1.000000 0.143964 0.082500
0.000000 0.103751 0.082500
0.070156 0.104452 0.082500
0.139867 0.106410 0.082500
0.208608 0.109727 0.082500
0.275172 0.114184 0.082500
0.336690 0.120073 0.082500
0.395638 0.126796 0.082500
0.451823 0.134284 0.082500
0.505628 0.142321 0.082500
0.556130 0.150729 0.082500
0.604018 0.159332 0.082500
0.649220 0.167810 0.082500
0.692530 0.176290 0.082500
0.735078 0.184330 0.082500
0.775220 0.191732 0.082500
0.814883 0.198336 0.082500
0.852321 0.204027 0.082500
0.890273 0.208608 0.082500
0.926756 0.211832 0.082500
0.963491 0.213852 0.082500
1.000000 0.214575 0.082500
0.000000 0.139310 0.082500
0.068576 0.140316 0.082500
0.136764 0.143027 0.082500
0.204027 0.147679 0.082500
0.269357 0.153560 0.082500
0.329636 0.161035 0.082500
0.387626 0.169602 0.082500
0.443303 0.179208 0.082500
0.496815 0.189742 0.082500
0.546846 0.200692 0.082500
0.594418 0.211869 0.082500
0.639682 0.222896 0.082500
0.683343 0.233865 0.082500
0.726464 0.244119 0.082500
0.767334 0.253672 0.082500
0.807956 0.262162 0.082500
0.846440 0.269357 0.082500
0.885816 0.275172 0.082500
0.923615 0.279317 0.082500
0.962052 0.281911 0.082500
1.000000 0.282818 0.082500
0.000000 0.175764 0.082500
0.066577 0.176830 0.082500
0.132763 0.179933 0.082500
0.198336 0.185117 0.082500
0.262162 0.192044 0.082500
0.320956 0.200974 0.082500
0.377735 0.211226 0.082500
0.432685 0.222680 0.082500
0.485801 0.235032 0.082500
0.535265 0.247905 0.082500
0.582486 0.261079 0.082500
0.627838 0.274100 0.082500
0.671835 0.287075 0.082500
0.715619 0.299334 0.082500
0.757435 0.310739 0.082500
0.799026 0.320956 0.082500
0.838965 0.329636 0.082500
0.879927 0.336690 0.082500
0.919737 0.341624 0.082500
0.960135 0.344878 0.082500
1.000000 0.345964 0.082500
0.000000 0.214040 0.082500
0.064278 0.215287 0.082500
0.128242 0.218895 0.082500
0.191732 0.224780 0.082500
0.253672 0.232666 0.082500
0.310739 0.242565 0.082500
0.366085 0.253920 0.082500
0.420033 0.266683 0.082500
0.472512 0.280546 0.082500
0.521394 0.295082 0.082500
0.568470 0.309907 0.082500
0.613982 0.324615 0.082500
0.658425 0.339260 0.082500
0.703063 0.353161 0.082500
0.746080 0.366085 0.082500
0.788774 0.377735 0.082500
0.830398 0.387626 0.082500
0.873204 0.395638 0.082500
0.915353 0.401331 0.082500
0.957893 0.405055 0.082500
1.000000 0.406309 0.082500
0.000000 0.253333 0.082500
0.061705 0.254635 0.082500
0.123234 0.258563 0.082500
0.184330 0.264922 0.082500
0.244119 0.273536 0.082500
0.299334 0.284381 0.082500
0.353161 0.296937 0.082500
0.405950 0.311032 0.082500
0.457685 0.326302 0.082500
0.506028 0.342268 0.082500
0.552821 0.358602 0.082500
0.598459 0.374792 0.082500
0.643320 0.390795 0.082500
0.688968 0.405950 0.082500
0.733317 0.420033 0.082500
0.777320 0.432685 0.082500
0.820792 0.443303 0.082500
0.865716 0.451823 0.082500
0.910452 0.458048 0.082500
0.955396 0.462090 0.082500
1.000000 0.463406 0.082500
0.000000 0.295082 0.082500
0.058943 0.296422 0.082500
0.117758 0.300656 0.082500
0.176290 0.307470 0.082500
0.233865 0.316657 0.082500
0.287075 0.328165 0.082500
0.339260 0.341575 0.082500
0.390795 0.356680 0.082500
0.441765 0.373023 0.082500
0.489333 0.390125 0.082500
0.535876 0.407584 0.082500
0.581661 0.424847 0.082500
0.626977 0.441765 0.082500
0.673698 0.457685 0.082500
0.719454 0.472512 0.082500
0.764968 0.485801 0.082500
0.810258 0.496815 0.082500
0.857679 0.505628 0.082500
0.905063 0.512210 0.082500
0.952631 0.516433 0.082500
1.000000 0.517784 0.082500
0.000000 0.337932 0.082500
0.056025 0.339360 0.082500
0.112015 0.343771 0.082500
0.167810 0.350780 0.082500
0.222896 0.360318 0.082500
0.274100 0.372162 0.082500
0.324615 0.386018 0.082500
0.374792 0.401541 0.082500
0.424847 0.418339 0.082500
0.471814 0.435914 0.082500
0.518122 0.453896 0.082500
0.564086 0.471814 0.082500
0.609875 0.489333 0.082500
0.657732 0.506028 0.082500
0.704918 0.521394 0.082500
0.752095 0.535265 0.082500
0.799308 0.546846 0.082500
0.849271 0.556130 0.082500
0.899403 0.563047 0.082500
0.949775 0.567388 0.082500
1.000000 0.568834 0.082500
0.000000 0.383062 0.082500
0.053117 0.384498 0.082500
0.106324 0.388951 0.082500
0.159332 0.395982 0.082500
0.211869 0.405582 0.082500
0.261079 0.417514 0.082500
0.309907 0.431530 0.082500
0.358602 0.447179 0.082500
0.407584 0.464124 0.082500
0.453896 0.481878 0.082500
0.500000 0.500000 0.082500
0.546104 0.518122 0.082500
0.592416 0.535876 0.082500
0.641398 0.552821 0.082500
0.690093 0.568470 0.082500
0.738921 0.582486 0.082500
0.788131 0.594418 0.082500
0.840668 0.604018 0.082500
0.893676 0.611049 0.082500
0.946883 0.615502 0.082500
1.000000 0.616938 0.082500
0.000000 0.431166 0.082500
0.050225 0.432612 0.082500
0.100597 0.436953 0.082500
0.150729 0.443870 0.082500
0.200692 0.453154 0.082500
0.247905 0.464735 0.082500
0.295082 0.478606 0.082500
0.342268 0.493972 0.082500
0.390125 0.510667 0.082500
0.435914 0.528186 0.082500
0.481878 0.546104 0.082500
0.528186 0.564086 0.082500
0.575153 0.581661 0.082500
0.625208 0.598459 0.082500
0.675385 0.613982 0.082500
0.725900 0.627838 0.082500
0.777104 0.639682 0.082500
0.832190 0.649220 0.082500
0.887985 0.656229 0.082500
0.943975 0.660640 0.082500
1.000000 0.662068 0.082500
0.000000 0.482216 0.082500
0.047369 0.483567 0.082500
0.094937 0.487790 0.082500
0.142321 0.494372 0.082500
0.189742 0.503185 0.082500
0.235032 0.514199 0.082500
0.280546 0.527488 0.082500
0.326302 0.542315 0.082500
0.373023 0.558235 0.082500
0.418339 0.575153 0.082500
0.464124 0.592416 0.082500
0.510667 0.609875 0.082500
0.558235 0.626977 0.082500
0.609205 0.643320 0.082500
0.660740 0.658425 0.082500
0.712925 0.671835 0.082500
0.766135 0.683343 0.082500
0.823710 0.692530 0.082500
0.882242 0.699344 0.082500
0.941057 0.703578 0.082500
1.000000 0.704918 0.082500
0.000000 0.536594 0.082500
0.044604 0.537910 0.082500
0.089548 0.541952 0.082500
0.134284 0.548177 0.082500
0.179208 0.556697 0.082500
0.222680 0.567315 0.082500
0.266683 0.579967 0.082500
0.311032 0.594050 0.082500
0.356680 0.609205 0.082500
0.401541 0.625208 0.082500
0.447179 0.641398 0.082500
0.493972 0.657732 0.082500
0.542315 0.673698 0.082500
0.594050 0.688968 0.082500
0.646839 0.703063 0.082500
0.700666 0.715619 0.082500
0.755881 0.726464 0.082500
0.815670 0.735078 0.082500
0.876766 0.741437 0.082500
0.938295 0.745365 0.082500
1.000000 0.746667 0.082500
0.000000 0.593691 0.082500
0.042107 0.594945 0.082500
0.084647 0.598669 0.082500
0.126796 0.604362 0.082500