# vtk DataFile Version 2.0
Mesh for Fierro
ASCII 
DATASET UNSTRUCTURED_GRID

POINTS 2205 float
0.000000 0.000000 0.000000
0.552537 0.000000 0.000000
0.892343 0.000000 0.000000
0.915530 0.000000 0.000000
0.930403 0.000000 0.000000
0.941479 0.000000 0.000000
0.949652 0.000000 0.000000
0.957570 0.000000 0.000000
0.963874 0.000000 0.000000
0.969137 0.000000 0.000000
0.973465 0.000000 0.000000
0.977004 0.000000 0.000000
0.979784 0.000000 0.000000
0.982091 0.000000 0.000000
0.984246 0.000000 0.000000
0.986399 0.000000 0.000000
0.988620 0.000000 0.000000
0.991438 0.000000 0.000000
0.994608 0.000000 0.000000
0.997979 0.000000 0.000000
1.000000 0.000000 0.000000
0.000000 0.002021 0.000000
0.566039 0.005398 0.000000
0.874332 0.030362 0.000000
0.882348 0.101771 0.000000
0.910310 0.113709 0.000000
0.923883 0.174003 0.000000
0.933753 0.228785 0.000000
0.938995 0.287911 0.000000
0.942497 0.348095 0.000000
0.945591 0.399772 0.000000
0.948699 0.447301 0.000000
0.951769 0.491804 0.000000
0.954699 0.533263 0.000000
0.958328 0.566665 0.000000
0.962516 0.593450 0.000000
0.967605 0.613554 0.000000
0.973310 0.627325 0.000000
0.980768 0.618968 0.000000
0.988076 0.595021 0.000000
0.994602 0.566039 0.000000
1.000000 0.552537 0.000000
0.000000 0.005392 0.000000
0.595021 0.011924 0.000000
0.852301 0.047853 0.000000
0.861545 0.146569 0.000000
0.901981 0.214068 0.000000
0.911257 0.319792 0.000000
0.912490 0.407911 0.000000
0.912719 0.490871 0.000000
0.907709 0.563839 0.000000
0.904541 0.614532 0.000000
0.898152 0.656919 0.000000
0.889753 0.689197 0.000000
0.881331 0.715328 0.000000
0.880122 0.735352 0.000000
0.884843 0.753735 0.000000
0.895369 0.772864 0.000000
0.909890 0.795437 0.000000
0.930499 0.823302 0.000000
0.952147 0.852301 0.000000
0.969638 0.874332 0.000000
1.000000 0.892343 0.000000
0.000000 0.008562 0.000000
0.618968 0.019232 0.000000
0.823302 0.069501 0.000000
0.861298 0.190186 0.000000
0.885169 0.310853 0.000000
0.883078 0.400695 0.000000
0.882391 0.487367 0.000000
0.866628 0.567954 0.000000
0.847125 0.623535 0.000000
0.827559 0.668413 0.000000
0.801511 0.710153 0.000000
0.778640 0.747580 0.000000
0.759373 0.782292 0.000000
0.754390 0.809513 0.000000
0.758545 0.829765 0.000000
0.769756 0.844585 0.000000
0.787128 0.854481 0.000000
0.809814 0.861298 0.000000
0.853431 0.861545 0.000000
0.898229 0.882348 0.000000
1.000000 0.915530 0.000000
0.000000 0.011380 0.000000
0.627325 0.026690 0.000000
0.795437 0.090110 0.000000
0.854481 0.212872 0.000000
0.850748 0.354970 0.000000
0.855473 0.442632 0.000000
0.845092 0.541670 0.000000
0.806353 0.610693 0.000000
0.773914 0.660708 0.000000
0.739088 0.701274 0.000000
0.704284 0.731827 0.000000
0.681861 0.752912 0.000000
0.659536 0.767013 0.000000
0.644126 0.781025 0.000000
0.635498 0.798270 0.000000
0.633513 0.821681 0.000000
0.645030 0.850748 0.000000
0.689147 0.885169 0.000000
0.785932 0.901981 0.000000
0.886291 0.910310 0.000000
1.000000 0.930403 0.000000
0.000000 0.013601 0.000000
0.613554 0.032395 0.000000
0.772864 0.104631 0.000000
0.844585 0.230244 0.000000
0.821681 0.366487 0.000000
0.831067 0.466191 0.000000
0.808226 0.554114 0.000000
0.760758 0.609829 0.000000
0.720464 0.655626 0.000000
0.677878 0.688972 0.000000
0.631171 0.713564 0.000000
0.588000 0.734388 0.000000
0.547767 0.754917 0.000000
0.528169 0.780704 0.000000
0.521182 0.805975 0.000000
0.533809 0.831067 0.000000
0.557368 0.855473 0.000000
0.599305 0.883078 0.000000
0.680208 0.911257 0.000000
0.825997 0.923883 0.000000
1.000000 0.941479 0.000000
0.000000 0.015754 0.000000
0.593450 0.037484 0.000000
0.753735 0.115157 0.000000
0.829765 0.241455 0.000000
0.798270 0.364502 0.000000
0.805975 0.478818 0.000000
0.767631 0.551762 0.000000
0.719173 0.600894 0.000000
0.669032 0.641133 0.000000
0.621812 0.667318 0.000000
0.573812 0.684975 0.000000
0.533056 0.702401 0.000000
0.496504 0.716473 0.000000
0.468915 0.740237 0.000000
0.448238 0.767631 0.000000
0.445886 0.808226 0.000000
0.458330 0.845092 0.000000
0.512633 0.882391 0.000000
0.592089 0.912490 0.000000
0.771215 0.933753 0.000000
1.000000 0.949652 0.000000
0.000000 0.017909 0.000000
0.566665 0.041672 0.000000
0.735352 0.119878 0.000000
0.809513 0.245610 0.000000
0.781025 0.355874 0.000000
0.780704 0.471831 0.000000
0.740237 0.531085 0.000000
0.689290 0.579245 0.000000
0.636531 0.609874 0.000000
0.587644 0.630802 0.000000
0.538039 0.643657 0.000000
0.492312 0.653878 0.000000
0.451103 0.665387 0.000000
0.420755 0.689290 0.000000
0.399106 0.719173 0.000000
0.390171 0.760758 0.000000
0.389307 0.806353 0.000000
0.432046 0.866628 0.000000
0.509129 0.912719 0.000000
0.712089 0.938995 0.000000
1.000000 0.957570 0.000000
0.000000 0.020216 0.000000
0.533263 0.045301 0.000000
0.715328 0.118669 0.000000
0.782292 0.240627 0.000000
0.767013 0.340464 0.000000
0.754917 0.452233 0.000000
0.716473 0.503496 0.000000
0.665387 0.548897 0.000000
0.611195 0.571169 0.000000
0.562098 0.588966 0.000000
0.514407 0.595738 0.000000
0.470770 0.603320 0.000000
0.428831 0.611195 0.000000
0.390126 0.636531 0.000000
0.358867 0.669032 0.000000
0.344374 0.720464 0.000000
0.339292 0.773914 0.000000
0.376465 0.847125 0.000000
0.436161 0.907709 0.000000
0.651905 0.942497 0.000000
1.000000 0.963874 0.000000
0.000000 0.022996 0.000000
0.491804 0.048231 0.000000
0.689197 0.110247 0.000000
0.747580 0.221360 0.000000
0.752912 0.318139 0.000000
0.734388 0.412000 0.000000
0.702401 0.466944 0.000000
0.653878 0.507688 0.000000
0.603320 0.529230 0.000000
0.553203 0.543273 0.000000
0.504156 0.547774 0.000000
0.456727 0.553203 0.000000
0.411034 0.562098 0.000000
0.369198 0.587644 0.000000
0.332682 0.621812 0.000000
0.311028 0.677878 0.000000
0.298726 0.739088 0.000000
0.331587 0.827559 0.000000
0.385468 0.904541 0.000000
0.600228 0.945591 0.000000
1.000000 0.969137 0.000000
0.000000 0.026535 0.000000
0.447301 0.051301 0.000000
0.656919 0.101848 0.000000
0.710153 0.198489 0.000000
0.731827 0.295716 0.000000
0.713564 0.368829 0.000000
0.684975 0.426188 0.000000
0.643657 0.461961 0.000000
0.595738 0.485593 0.000000
0.547774 0.495844 0.000000
0.500000 0.500000 0.000000
0.452226 0.504156 0.000000
0.404262 0.514407 0.000000
0.356343 0.538039 0.000000
0.315025 0.573812 0.000000
0.286436 0.631171 0.000000
0.268173 0.704284 0.000000
0.289847 0.801511 0.000000
0.343081 0.898152 0.000000
0.552699 0.948699 0.000000
1.000000 0.973465 0.000000
0.000000 0.030863 0.000000
0.399772 0.054409 0.000000
0.614532 0.095459 0.000000
0.668413 0.172441 0.000000
0.701274 0.260912 0.000000
0.688972 0.322122 0.000000
0.667318 0.378188 0.000000
0.630802 0.412356 0.000000
0.588966 0.437902 0.000000
0.543273 0.446797 0.000000
0.495844 0.452226 0.000000
0.446797 0.456727 0.000000
0.396680 0.470770 0.000000
0.346122 0.492312 0.000000
0.297599 0.533056 0.000000
0.265612 0.588000 0.000000
0.247088 0.681861 0.000000
0.252420 0.778640 0.000000
0.310803 0.889753 0.000000
0.508196 0.951769 0.000000
1.000000 0.977004 0.000000
0.000000 0.036126 0.000000
0.348095 0.057503 0.000000
0.563839 0.092291 0.000000
0.623535 0.152875 0.000000
0.660708 0.226086 0.000000
0.655626 0.279536 0.000000
0.641133 0.330968 0.000000
0.609874 0.363469 0.000000
0.571169 0.388805 0.000000
0.529230 0.396680 0.000000
0.485593 0.404262 0.000000
0.437902 0.411034 0.000000
0.388805 0.428831 0.000000
0.334613 0.451103 0.000000
0.283527 0.496504 0.000000
0.245083 0.547767 0.000000
0.232987 0.659536 0.000000
0.217708 0.759373 0.000000
0.284672 0.881331 0.000000
0.466737 0.954699 0.000000
1.000000 0.979784 0.000000
0.000000 0.042430 0.000000
0.287911 0.061005 0.000000
0.490871 0.087281 0.000000
0.567954 0.133372 0.000000
0.610693 0.193647 0.000000
0.609829 0.239242 0.000000
0.600894 0.280827 0.000000
0.579245 0.310710 0.000000
0.548897 0.334613 0.000000
0.507688 0.346122 0.000000
0.461961 0.356343 0.000000
0.412356 0.369198 0.000000
0.363469 0.390126 0.000000
0.310710 0.420755 0.000000
0.259763 0.468915 0.000000
0.219296 0.528169 0.000000
0.218975 0.644126 0.000000
0.190487 0.754390 0.000000
0.264648 0.880122 0.000000
0.433335 0.958328 0.000000
1.000000 0.982091 0.000000
0.000000 0.050348 0.000000
0.228785 0.066247 0.000000
0.407911 0.087510 0.000000
0.487367 0.117609 0.000000
0.541670 0.154908 0.000000
0.554114 0.191774 0.000000
0.551762 0.232369 0.000000
0.531085 0.259763 0.000000
0.503496 0.283527 0.000000
0.466944 0.297599 0.000000
0.426188 0.315025 0.000000
0.378188 0.332682 0.000000
0.330968 0.358867 0.000000
0.280827 0.399106 0.000000
0.232369 0.448238 0.000000
0.194025 0.521182 0.000000
0.201730 0.635498 0.000000
0.170235 0.758545 0.000000
0.246265 0.884843 0.000000
0.406550 0.962516 0.000000
1.000000 0.984246 0.000000
0.000000 0.058521 0.000000
0.174003 0.076117 0.000000
0.319792 0.088743 0.000000
0.400695 0.116922 0.000000
0.442632 0.144527 0.000000
0.466191 0.168933 0.000000
0.478818 0.194025 0.000000
0.471831 0.219296 0.000000
0.452233 0.245083 0.000000
0.412000 0.265612 0.000000
0.368829 0.286436 0.000000
0.322122 0.311028 0.000000
0.279536 0.344374 0.000000
0.239242 0.390171 0.000000
0.191774 0.445886 0.000000
0.168933 0.533809 0.000000
0.178319 0.633513 0.000000
0.155415 0.769756 0.000000
0.227136 0.895369 0.000000
0.386446 0.967605 0.000000
1.000000 0.986399 0.000000
0.000000 0.069597 0.000000
0.113709 0.089690 0.000000
0.214068 0.098019 0.000000
0.310853 0.114831 0.000000
0.354970 0.149252 0.000000
0.366487 0.178319 0.000000
0.364502 0.201730 0.000000
0.355874 0.218975 0.000000
0.340464 0.232987 0.000000
0.318139 0.247088 0.000000
0.295716 0.268173 0.000000
0.260912 0.298726 0.000000
0.226086 0.339292 0.000000
0.193647 0.389307 0.000000
0.154908 0.458330 0.000000
0.144527 0.557368 0.000000
0.149252 0.645030 0.000000
0.145519 0.787128 0.000000
0.204563 0.909890 0.000000
0.372675 0.973310 0.000000
1.000000 0.988620 0.000000
0.000000 0.084470 0.000000
0.101771 0.117652 0.000000
0.146569 0.138455 0.000000
0.190186 0.138702 0.000000
0.212872 0.145519 0.000000
0.230244 0.155415 0.000000
0.241455 0.170235 0.000000
0.245610 0.190487 0.000000
0.240627 0.217708 0.000000
[...]
POINT_DATA 2205 
VECTORS pos float 
0.000000 0.000000 0.000000
0.552537 0.000000 0.000000
0.892343 0.000000 0.000000
0.915530 0.000000 0.000000
0.930403 0.000000 0.000000
0.941479 0.000000 0.000000
0.949652 0.000000 0.000000
0.957570 0.000000 0.000000
0.963874 0.000000 0.000000
0.969137 0.000000 0.000000
0.973465 0.000000 0.000000
0.977004 0.000000 0.000000
0.979784 0.000000 0.000000
0.982091 0.000000 0.000000
0.984246 0.000000 0.000000
0.986399 0.000000 0.000000
0.988620 0.000000 0.000000
0.991438 0.000000 0.000000
0.994608 0.000000 0.000000
0.997979 0.000000 0.000000
1.000000 0.000000 0.000000
0.000000 0.002021 0.000000
0.566039 0.005398 0.000000
0.874332 0.030362 0.000000
0.882348 0.101771 0.000000
0.910310 0.113709 0.000000
0.923883 0.174003 0.000000
0.933753 0.228785 0.000000
0.938995 0.287911 0.000000
0.942497 0.348095 0.000000
0.945591 0.399772 0.000000
0.948699 0.447301 0.000000
0.951769 0.491804 0.000000
0.954699 0.533263 0.000000
0.958328 0.566665 0.000000
0.962516 0.593450 0.000000
0.967605 0.613554 0.000000
0.973310 0.627325 0.000000
0.980768 0.618968 0.000000
0.988076 0.595021 0.000000
0.994602 0.566039 0.000000
1.000000 0.552537 0.000000
0.000000 0.005392 0.000000
0.595021 0.011924 0.000000
0.852301 0.047853 0.000000
0.861545 0.146569 0.000000
0.901981 0.214068 0.000000
0.911257 0.319792 0.000000
0.912490 0.407911 0.000000
0.912719 0.490871 0.000000
0.907709 0.563839 0.000000
0.904541 0.614532 0.000000
0.898152 0.656919 0.000000
0.889753 0.689197 0.000000
0.881331 0.715328 0.000000
0.880122 0.735352 0.000000
0.884843 0.753735 0.000000
0.895369 0.772864 0.000000
0.909890 0.795437 0.000000
0.930499 0.823302 0.000000
0.952147 0.852301 0.000000
0.969638 0.874332 0.000000
1.000000 0.892343 0.000000
0.000000 0.008562 0.000000
0.618968 0.019232 0.000000
0.823302 0.069501 0.000000
0.861298 0.190186 0.000000
0.885169 0.310853 0.000000
0.883078 0.400695 0.000000
0.882391 0.487367 0.000000
0.866628 0.567954 0.000000
0.847125 0.623535 0.000000
0.827559 0.668413 0.000000
0.801511 0.710153 0.000000
0.778640 0.747580 0.000000
0.759373 0.782292 0.000000
0.754390 0.809513 0.000000
0.758545 0.829765 0.000000
0.769756 0.844585 0.000000
0.787128 0.854481 0.000000
0.809814 0.861298 0.000000
0.853431 0.861545 0.000000
0.898229 0.882348 0.000000
1.000000 0.915530 0.000000
0.000000 0.011380 0.000000
0.627325 0.026690 0.000000
0.795437 0.090110 0.000000
0.854481 0.212872 0.000000
0.850748 0.354970 0.000000
0.855473 0.442632 0.000000
0.845092 0.541670 0.000000
0.806353 0.610693 0.000000
0.773914 0.660708 0.000000
0.739088 0.701274 0.000000
0.704284 0.731827 0.000000
0.681861 0.752912 0.000000
0.659536 0.767013 0.000000
0.644126 0.781025 0.000000
0.635498 0.798270 0.000000
0.633513 0.821681 0.000000
0.645030 0.850748 0.000000
0.689147 0.885169 0.000000
0.785932 0.901981 0.000000
0.886291 0.910310 0.000000
1.000000 0.930403 0.000000
0.000000 0.013601 0.000000
0.613554 0.032395 0.000000
0.772864 0.104631 0.000000
0.844585 0.230244 0.000000
0.821681 0.366487 0.000000
0.831067 0.466191 0.000000
0.808226 0.554114 0.000000
0.760758 0.609829 0.000000
0.720464 0.655626 0.000000
0.677878 0.688972 0.000000
0.631171 0.713564 0.000000
0.588000 0.734388 0.000000
0.547767 0.754917 0.000000
0.528169 0.780704 0.000000
0.521182 0.805975 0.000000
0.533809 0.831067 0.000000
0.557368 0.855473 0.000000
0.599305 0.883078 0.000000
0.680208 0.911257 0.000000
0.825997 0.923883 0.000000
1.000000 0.941479 0.000000
0.000000 0.015754 0.000000
0.593450 0.037484 0.000000
0.753735 0.115157 0.000000
0.829765 0.241455 0.000000
0.798270 0.364502 0.000000
0.805975 0.478818 0.000000
0.767631 0.551762 0.000000
0.719173 0.600894 0.000000
0.669032 0.641133 0.000000
0.621812 0.667318 0.000000
0.573812 0.684975 0.000000
0.533056 0.702401 0.000000
0.496504 0.716473 0.000000
0.468915 0.740237 0.000000
0.448238 0.767631 0.000000
0.445886 0.808226 0.000000
0.458330 0.845092 0.000000
0.512633 0.882391 0.000000
0.592089 0.912490 0.000000
0.771215 0.933753 0.000000
1.000000 0.949652 0.000000
0.000000 0.017909 0.000000
0.566665 0.041672 0.000000
0.735352 0.119878 0.000000
0.809513 0.245610 0.000000
0.781025 0.355874 0.000000
0.780704 0.471831 0.000000
0.740237 0.531085 0.000000
0.689290 0.579245 0.000000
0.636531 0.609874 0.000000
0.587644 0.630802 0.000000
0.538039 0.643657 0.000000
0.492312 0.653878 0.000000
0.451103 0.665387 0.000000
0.420755 0.689290 0.000000
0.399106 0.719173 0.000000
0.390171 0.760758 0.000000
0.389307 0.806353 0.000000
0.432046 0.866628 0.000000
0.509129 0.912719 0.000000
0.712089 0.938995 0.000000
1.000000 0.957570 0.000000
0.000000 0.020216 0.000000
0.533263 0.045301 0.000000
0.715328 0.118669 0.000000
0.782292 0.240627 0.000000
0.767013 0.340464 0.000000
0.754917 0.452233 0.000000
0.716473 0.503496 0.000000
0.665387 0.548897 0.000000
0.611195 0.571169 0.000000
0.562098 0.588966 0.000000
0.514407 0.595738 0.000000
0.470770 0.603320 0.000000
0.428831 0.611195 0.000000
0.390126 0.636531 0.000000
0.358867 0.669032 0.000000
0.344374 0.720464 0.000000
0.339292 0.773914 0.000000
0.376465 0.847125 0.000000
0.436161 0.907709 0.000000
0.651905 0.942497 0.000000
1.000000 0.963874 0.000000
0.000000 0.022996 0.000000
0.491804 0.048231 0.000000
0.689197 0.110247 0.000000
0.747580 0.221360 0.000000
0.752912 0.318139 0.000000
0.734388 0.412000 0.000000
0.702401 0.466944 0.000000
0.653878 0.507688 0.000000
0.603320 0.529230 0.000000
0.553203 0.543273 0.000000
0.504156 0.547774 0.000000
0.456727 0.553203 0.000000
0.411034 0.562098 0.000000
0.369198 0.587644 0.000000
0.332682 0.621812 0.000000
0.311028 0.677878 0.000000
0.298726 0.739088 0.000000
0.331587 0.827559 0.000000
0.385468 0.904541 0.000000
0.600228 0.945591 0.000000
1.000000 0.969137 0.000000
0.000000 0.026535 0.000000
0.447301 0.051301 0.000000
0.656919 0.101848 0.000000
0.710153 0.198489 0.000000
0.731827 0.295716 0.000000
0.713564 0.368829 0.000000
0.684975 0.426188 0.000000
0.643657 0.461961 0.000000
0.595738 0.485593 0.000000
0.547774 0.495844 0.000000
0.500000 0.500000 0.000000
0.452226 0.504156 0.000000
0.404262 0.514407 0.000000
0.356343 0.538039 0.000000
0.315025 0.573812 0.000000
0.286436 0.631171 0.000000
0.268173 0.704284 0.000000
0.289847 0.801511 0.000000
0.343081 0.898152 0.000000
0.552699 0.948699 0.000000
1.000000 0.973465 0.000000
0.000000 0.030863 0.000000
0.399772 0.054409 0.000000
0.614532 0.095459 0.000000
0.668413 0.172441 0.000000
0.701274 0.260912 0.000000
0.688972 0.322122 0.000000
0.667318 0.378188 0.000000
0.630802 0.412356 0.000000
0.588966 0.437902 0.000000
0.543273 0.446797 0.000000
0.495844 0.452226 0.000000
0.446797 0.456727 0.000000
0.396680 0.470770 0.000000
0.346122 0.492312 0.000000
0.297599 0.533056 0.000000
0.265612 0.588000 0.000000
0.247088 0.681861 0.000000
0.252420 0.778640 0.000000
0.310803 0.889753 0.000000
0.508196 0.951769 0.000000
1.000000 0.977004 0.000000
0.000000 0.036126 0.000000
0.348095 0.057503 0.000000
0.563839 0.092291 0.000000
0.623535 0.152875 0.000000
0.660708 0.226086 0.000000
0.655626 0.279536 0.000000
0.641133 0.330968 0.000000
0.609874 0.363469 0.000000
0.571169 0.388805 0.000000
0.529230 0.396680 0.000000
0.485593 0.404262 0.000000
0.437902 0.411034 0.000000
0.388805 0.428831 0.000000
0.334613 0.451103 0.000000
0.283527 0.496504 0.000000
0.245083 0.547767 0.000000
0.232987 0.659536 0.000000
0.217708 0.759373 0.000000
0.284672 0.881331 0.000000
0.466737 0.954699 0.000000
1.000000 0.979784 0.000000
0.000000 0.042430 0.000000
0.287911 0.061005 0.000000
0.490871 0.087281 0.000000
0.567954 0.133372 0.000000
0.610693 0.193647 0.000000
0.609829 0.239242 0.000000
0.600894 0.280827 0.000000
0.579245 0.310710 0.000000
0.548897 0.334613 0.000000
0.507688 0.346122 0.000000
0.461961 0.356343 0.000000
0.412356 0.369198 0.000000
0.363469 0.390126 0.000000
0.310710 0.420755 0.000000
0.259763 0.468915 0.000000
0.219296 0.528169 0.000000
0.218975 0.644126 0.000000
0.190487 0.754390 0.000000
0.264648 0.880122 0.000000
0.433335 0.958328 0.000000
1.000000 0.982091 0.000000
0.000000 0.050348 0.000000
0.228785 0.066247 0.000000
0.407911 0.087510 0.000000
0.487367 0.117609 0.000000
0.541670 0.154908 0.000000
0.554114 0.191774 0.000000
0.551762 0.232369 0.000000
0.531085 0.259763 0.000000
0.503496 0.283527 0.000000
0.466944 0.297599 0.000000
0.426188 0.315025 0.000000
0.378188 0.332682 0.000000
0.330968 0.358867 0.000000
0.280827 0.399106 0.000000
0.232369 0.448238 0.000000
0.194025 0.521182 0.000000
0.201730 0.635498 0.000000
0.170235 0.758545 0.000000
0.246265 0.884843 0.000000
0.406550 0.962516 0.000000
1.000000 0.984246 0.000000
0.000000 0.058521 0.000000
0.174003 0.076117 0.000000
0.319792 0.088743 0.000000
0.400695 0.116922 0.000000
0.442632 0.144527 0.000000
0.466191 0.168933 0.000000
0.478818 0.194025 0.000000
0.471831 0.219296 0.000000
0.452233 0.245083 0.000000
0.412000 0.265612 0.000000
0.368829 0.286436 0.000000
0.322122 0.311028 0.000000
0.279536 0.344374 0.000000
0.239242 0.390171 0.000000
0.191774 0.445886 0.000000
0.168933 0.533809 0.000000
0.178319 0.633513 0.000000
0.155415 0.769756 0.000000
0.227136 0.895369 0.000000
0.386446 0.967605 0.000000
1.000000 0.986399 0.000000
0.000000 0.069597 0.000000
0.113709 0.089690 0.000000
0.214068 0.098019 0.000000
0.310853 0.114831 0.000000
0.354970 0.149252 0.000000
0.366487 0.178319 0.000000
0.364502 0.201730 0.000000
0.355874 0.218975 0.000000
0.340464 0.232987 0.000000
0.318139 0.247088 0.000000
0.295716 0.268173 0.000000
0.260912 0.298726 0.000000
0.226086 0.339292 0.000000
0.193647 0.389307 0.000000
0.154908 0.458330 0.000000
0.144527 0.557368 0.000000
0.149252 0.645030 0.000000
0.145519 0.787128 0.000000
0.204563 0.909890 0.000000
0.372675 0.973310 0.000000
1.000000 0.988620 0.000000
0.000000 0.084470 0.000000
0.101771 0.117652 0.000000
0.146569 0.138455 0.000000
0.190186 0.138702 0.000000
0.212872 0.145519 0.000000
0.230244 0.155415 0.000000
0.241455 0.170235 0.000000
0.245610 0.190487 0.000000
0.240627 0.217708 0.000000
0.221360 0.252420 0.000000
0.198489 0.289847 0.000000
0.172441 0.331587 0.000000
0.152875 0.376465 0.000000
0.133372 0.432046 0.000000
0.117609 0.512633 0.000000
0.116922 0.599305 0.000000
0.114831 0.689147 0.000000
0.138702 0.809814 0.000000
0.176698 0.930499 0.000000
0.381032 0.980768 0.000000
1.000000 0.991438 0.000000
0.000000 0.107657 0.000000
0.030362 0.125668 0.000000
0.047853 0.147699 0.000000
0.069501 0.176698 0.000000
0.090110 0.204563 0.000000
0.104631 0.227136 0.000000
0.115157 0.246265 0.000000
0.119878 0.264648 0.000000
0.118669 0.284672 0.000000
0.110247 0.310803 0.000000
0.101848 0.343081 0.000000
0.095459 0.385468 0.000000
0.092291 0.436161 0.000000
0.087281 0.509129 0.000000
0.087510 0.592089 0.000000
0.088743 0.680208 0.000000
0.098019 0.785932 0.000000
0.138455 0.853431 0.000000
0.147699 0.952147 0.000000
0.404979 0.988076 0.000000
1.000000 0.994608 0.000000
0.000000 0.447463 0.000000
0.005398 0.433961 0.000000
0.011924 0.404979 0.000000
0.019232 0.381032 0.000000
0.026690 0.372675 0.000000
0.032395 0.386446 0.000000
0.037484 0.406550 0.000000
0.041672 0.433335 0.000000
0.045301 0.466737 0.000000
0.048231 0.508196 0.000000
0.051301 0.552699 0.000000
0.054409 0.600228 0.000000
0.057503 0.651905 0.000000
0.061005 0.712089 0.000000
0.066247 0.771215 0.000000
0.076117 0.825997 0.000000
0.089690 0.886291 0.000000
0.117652 0.898229 0.000000
0.125668 0.969638 0.000000
0.433961 0.994602 0.000000
1.000000 0.997979 0.000000
0.000000 1.000000 0.000000
0.002021 1.000000 0.000000
0.005392 1.000000 0.000000
0.008562 1.000000 0.000000
0.011380 1.000000 0.000000
0.013601 1.000000 0.000000
0.015754 1.000000 0.000000
0.017909 1.000000 0.000000
0.020216 1.000000 0.000000
0.022996 1.000000 0.000000
0.026535 1.000000 0.000000
0.030863 1.000000 0.000000
0.036126 1.000000 0.000000
0.042430 1.000000 0.000000
0.050348 1.000000 0.000000
0.058521 1.000000 0.000000
0.069597 1.000000 0.000000
0.084470 1.000000 0.000000
0.107657 1.000000 0.000000
0.447463 1.000000 0.000000
1.000000 1.000000 0.000000
0.000000 0.000000 0.082500
0.552537 0.000000 0.082500
0.892343 0.000000 0.082500
0.915530 0.000000 0.082500
0.930403 0.000000 0.082500
0.941479 0.000000 0.082500
0.949652 0.000000 0.082500
0.957570 0.000000 0.082500
0.963874 0.000000 0.082500
0.969137 0.000000 0.082500
0.973465 0.000000 0.082500
0.977004 0.000000 0.082500
0.979784 0.000000 0.082500
0.982091 0.000000 0.082500
0.984246 0.000000 0.082500
0.986399 0.000000 0.082500
0.988620 0.000000 0.082500
0.991438 0.000000 0.082500
0.994608 0.000000 0.082500
0.997979 0.000000 0.082500
1.000000 0.000000 0.082500
0.000000 0.002021 0.082500
0.566039 0.005398 0.082500
0.874332 0.030362 0.082500
0.882348 0.101771 0.082500
0.910310 0.113709 0.082500
0.923883 0.174003 0.082500
0.933753 0.228785 0.082500
0.938995 0.287911 0.082500
0.942497 0.348095 0.082500
0.945591 0.399772 0.082500
0.948699 0.447301 0.082500
0.951769 0.491804 0.082500
0.954699 0.533263 0.082500
0.958328 0.566665 0.082500
0.962516 0.593450 0.082500
0.967605 0.613554 0.082500
0.973310 0.627325 0.082500
0.980768 0.618968 0.082500
0.988076 0.595021 0.082500
0.994602 0.566039 0.082500
1.000000 0.552537 0.082500
0.000000 0.005392 0.082500
0.595021 0.011924 0.082500
0.852301 0.047853 0.082500
0.861545 0.146569 0.082500
0.901981 0.214068 0.082500
0.911257 0.319792 0.082500
0.912490 0.407911 0.082500
0.912719 0.490871 0.082500
0.907709 0.563839 0.082500
0.904541 0.614532 0.082500
0.898152 0.656919 0.082500
0.889753 0.689197 0.082500
0.881331 0.715328 0.082500
0.880122 0.735352 0.082500
0.884843 0.753735 0.082500
0.895369 0.772864 0.082500
0.909890 0.795437 0.082500
0.930499 0.823302 0.082500
0.952147 0.852301 0.082500
0.969638 0.874332 0.082500
1.000000 0.892343 0.082500
0.000000 0.008562 0.082500
0.618968 0.019232 0.082500
0.823302 0.069501 0.082500
0.861298 0.190186 0.082500
0.885169 0.310853 0.082500
0.883078 0.400695 0.082500
0.882391 0.487367 0.082500
0.866628 0.567954 0.082500
0.847125 0.623535 0.082500
0.827559 0.668413 0.082500
0.801511 0.710153 0.082500
0.778640 0.747580 0.082500
0.759373 0.782292 0.082500
0.754390 0.809513 0.082500
0.758545 0.829765 0.082500
0.769756 0.844585 0.082500
0.787128 0.854481 0.082500
0.809814 0.861298 0.082500
0.853431 0.861545 0.082500
0.898229 0.882348 0.082500
1.000000 0.915530 0.082500
0.000000 0.011380 0.082500
0.627325 0.026690 0.082500
0.795437 0.090110 0.082500
0.854481 0.212872 0.082500
0.850748 0.354970 0.082500
0.855473 0.442632 0.082500
0.845092 0.541670 0.082500
0.806353 0.610693 0.082500
0.773914 0.660708 0.082500
0.739088 0.701274 0.082500
0.704284 0.731827 0.082500
0.681861 0.752912 0.082500
0.659536 0.767013 0.082500
0.644126 0.781025 0.082500
0.635498 0.798270 0.082500
0.633513 0.821681 0.082500
0.645030 0.850748 0.082500
0.689147 0.885169 0.082500
0.785932 0.901981 0.082500
0.886291 0.910310 0.082500
1.000000 0.930403 0.082500
0.000000 0.013601 0.082500
0.613554 0.032395 0.082500
0.772864 0.104631 0.082500
0.844585 0.230244 0.082500
0.821681 0.366487 0.082500
0.831067 0.466191 0.082500
0.808226 0.554114 0.082500
0.760758 0.609829 0.082500
0.720464 0.655626 0.082500
0.677878 0.688972 0.082500
0.631171 0.713564 0.082500
0.588000 0.734388 0.082500
0.547767 0.754917 0.082500
0.528169 0.780704 0.082500
0.521182 0.805975 0.082500
0.533809 0.831067 0.082500
0.557368 0.855473 0.082500
0.599305 0.883078 0.082500
0.680208 0.911257 0.082500
0.825997 0.923883 0.082500
1.000000 0.941479 0.082500
0.000000 0.015754 0.082500
0.593450 0.037484 0.082500
0.753735 0.115157 0.082500
0.829765 0.241455 0.082500
0.798270 0.364502 0.082500
0.805975 0.478818 0.082500
0.767631 0.551762 0.082500
0.719173 0.600894 0.082500
0.669032 0.641133 0.082500
0.621812 0.667318 0.082500
0.573812 0.684975 0.082500
0.533056 0.702401 0.082500
0.496504 0.716473 0.082500
0.468915 0.740237 0.082500
0.448238 0.767631 0.082500
0.445886 0.808226 0.082500
0.458330 0.845092 0.082500
0.512633 0.882391 0.082500
0.592089 0.912490 0.082500
0.771215 0.933753 0.082500
1.000000 0.949652 0.082500
0.000000 0.017909 0.082500
0.566665 0.041672 0.082500
0.735352 0.119878 0.082500
0.809513 0.245610 0.082500
0.781025 0.355874 0.082500
0.780704 0.471831 0.082500
0.740237 0.531085 0.082500
0.689290 0.579245 0.082500
0.636531 0.609874 0.082500
0.587644 0.630802 0.082500
0.538039 0.643657 0.082500
0.492312 0.653878 0.082500
0.451103 0.665387 0.082500
0.420755 0.689290 0.082500
0.399106 0.719173 0.082500
0.390171 0.760758 0.082500
0.389307 0.806353 0.082500
0.432046 0.866628 0.082500
0.509129 0.912719 0.082500
0.712089 0.938995 0.082500
1.000000 0.957570 0.082500
0.000000 0.020216 0.082500
0.533263 0.045301 0.082500
0.715328 0.118669 0.082500
0.782292 0.240627 0.082500
0.767013 0.340464 0.082500
0.754917 0.452233 0.082500
0.716473 0.503496 0.082500
0.665387 0.548897 0.082500
0.611195 0.571169 0.082500
0.562098 0.588966 0.082500
0.514407 0.595738 0.082500
0.470770 0.603320 0.082500
0.428831 0.611195 0.082500
0.390126 0.636531 0.082500
0.358867 0.669032 0.082500
0.344374 0.720464 0.082500
0.339292 0.773914 0.082500
0.376465 0.847125 0.082500
0.436161 0.907709 0.082500
0.651905 0.942497 0.082500
1.000000 0.963874 0.082500
0.000000 0.022996 0.082500
0.491804 0.048231 0.082500
0.689197 0.110247 0.082500
0.747580 0.221360 0.082500
0.752912 0.318139 0.082500
0.734388 0.412000 0.082500
0.702401 0.466944 0.082500
0.653878 0.507688 0.082500
0.603320 0.529230 0.082500
0.553203 0.543273 0.082500
0.504156 0.547774 0.082500
0.456727 0.553203 0.082500
0.411034 0.562098 0.082500
0.369198 0.587644 0.082500
0.332682 0.621812 0.082500
0.311028 0.677878 0.082500
0.298726 0.739088 0.082500
0.331587 0.827559 0.082500
0.385468 0.904541 0.082500
0.600228 0.945591 0.082500
1.000000 0.969137 0.082500
0.000000 0.026535 0.082500
0.447301 0.051301 0.082500
0.656919 0.101848 0.082500
0.710153 0.198489 0.082500
0.731827 0.295716 0.082500
0.713564 0.368829 0.082500
0.684975 0.426188 0.082500
0.643657 0.461961 0.082500
0.595738 0.485593 0.082500
0.547774 0.495844 0.082500
0.500000 0.500000 0.082500
0.452226 0.504156 0.082500
0.404262 0.514407 0.082500
0.356343 0.538039 0.082500
0.315025 0.573812 0.082500
0.286436 0.631171 0.082500
0.268173 0.704284 0.082500
0.289847 0.801511 0.082500
0.343081 0.898152 0.082500
0.552699 0.948699 0.082500
1.000000 0.973465 0.082500
0.000000 0.030863 0.082500
0.399772 0.054409 0.082500
0.614532 0.095459 0.082500
0.668413 0.172441 0.082500
0.701274 0.260912 0.082500
0.688972 0.322122 0.082500
0.667318 0.378188 0.082500
0.630802 0.412356 0.082500
0.588966 0.437902 0.082500
0.543273 0.446797 0.082500
0.495844 0.452226 0.082500
0.446797 0.456727 0.082500
0.396680 0.470770 0.082500
0.346122 0.492312 0.082500
0.297599 0.533056 0.082500
0.265612 0.588000 0.082500
0.247088 0.681861 0.082500
0.252420 0.778640 0.082500
0.310803 0.889753 0.082500
0.508196 0.951769 0.082500
1.000000 0.977004 0.082500
0.000000 0.036126 0.082500
0.348095 0.057503 0.082500
0.563839 0.092291 0.082500
0.623535 0.152875 0.082500
0.660708 0.226086 0.082500
0.655626 0.279536 0.082500
0.641133 0.330968 0.082500
0.609874 0.363469 0.082500
0.571169 0.388805 0.082500
0.529230 0.396680 0.082500
0.485593 0.404262 0.082500
0.437902 0.411034 0.082500
0.388805 0.428831 0.082500
0.334613 0.451103 0.082500
0.283527 0.496504 0.082500
0.245083 0.547767 0.082500
0.232987 0.659536 0.082500
0.217708 0.759373 0.082500
0.284672 0.881331 0.082500
0.466737 0.954699 0.082500
1.000000 0.979784 0.082500
0.000000 0.042430 0.082500
0.287911 0.061005 0.082500
0.490871 0.087281 0.082500
0.567954 0.133372 0.082500
0.610693 0.193647 0.082500
0.609829 0.239242 0.082500
0.600894 0.280827 0.082500
0.579245 0.310710 0.082500
0.548897 0.334613 0.082500
0.507688 0.346122 0.082500
0.461961 0.356343 0.082500
0.412356 0.369198 0.082500
0.363469 0.390126 0.082500
0.310710 0.420755 0.082500
0.259763 0.468915 0.082500
0.219296 0.528169 0.082500
0.218975 0.644126 0.082500
0.190487 0.754390 0.082500
0.264648 0.880122 0.082500
0.433335 0.958328 0.082500
1.000000 0.982091 0.082500
0.000000 0.050348 0.082500
0.228785 0.066247 0.082500
0.407911 0.087510 0.082500
0.487367 0.117609 0.082500