# vtk DataFile Version 2.0
Mesh for Fierro
ASCII 
DATASET UNSTRUCTURED_GRID

POINTS 2205 float
0.000000 0.000000 0.000000
0.197660 0.000000 0.000000
0.364508 0.000000 0.000000
0.492850 0.000000 0.000000
0.587113 0.000000 0.000000
0.658870 0.000000 0.000000
0.715442 0.000000 0.000000
0.758100 0.000000 0.000000
0.793300 0.000000 0.000000
0.822875 0.000000 0.000000
0.848258 0.000000 0.000000
0.870739 0.000000 0.000000
0.889490 0.000000 0.000000
0.906964 0.000000 0.000000
0.922979 0.000000 0.000000
0.937269 0.000000 0.000000
0.950435 0.000000 0.000000
0.963619 0.000000 0.000000
0.976040 0.000000 0.000000
0.987985 0.000000 0.000000
1.000000 0.000000 0.000000
0.000000 0.012015 0.000000
0.196115 0.013501 0.000000
0.361854 0.016838 0.000000
0.490172 0.023344 0.000000
0.584577 0.030555 0.000000
0.655525 0.040509 0.000000
0.711213 0.051905 0.000000
0.752960 0.063928 0.000000
0.787633 0.077355 0.000000
0.815722 0.090930 0.000000
0.841031 0.104646 0.000000
0.862294 0.118923 0.000000
0.881449 0.133598 0.000000
0.898911 0.147313 0.000000
0.914903 0.159336 0.000000
0.930443 0.170126 0.000000
0.945029 0.178778 0.000000
0.959100 0.186205 0.000000
0.973016 0.192047 0.000000
0.986499 0.196115 0.000000
1.000000 0.197660 0.000000
0.000000 0.023960 0.000000
0.192047 0.026984 0.000000
0.355188 0.033449 0.000000
0.482633 0.046171 0.000000
0.576656 0.060222 0.000000
0.646731 0.079523 0.000000
0.701225 0.101556 0.000000
0.742227 0.124637 0.000000
0.775143 0.150036 0.000000
0.803172 0.175579 0.000000
0.827205 0.201548 0.000000
0.848348 0.227771 0.000000
0.866823 0.254287 0.000000
0.884477 0.278431 0.000000
0.900917 0.299483 0.000000
0.917560 0.318036 0.000000
0.933997 0.333030 0.000000
0.950226 0.345737 0.000000
0.966551 0.355188 0.000000
0.983162 0.361854 0.000000
1.000000 0.364508 0.000000
0.000000 0.036381 0.000000
0.186205 0.040900 0.000000
0.345737 0.049774 0.000000
0.470914 0.067948 0.000000
0.564123 0.088139 0.000000
0.631856 0.115685 0.000000
0.683470 0.146696 0.000000
0.722415 0.178757 0.000000
0.752524 0.213869 0.000000
0.778669 0.247935 0.000000
0.800782 0.282905 0.000000
0.820403 0.317276 0.000000
0.837813 0.351558 0.000000
0.855032 0.382912 0.000000
0.872638 0.410482 0.000000
0.891540 0.434612 0.000000
0.911177 0.454629 0.000000
0.932052 0.470914 0.000000
0.953829 0.482633 0.000000
0.976656 0.490172 0.000000
1.000000 0.492850 0.000000
0.000000 0.049565 0.000000
0.178778 0.054971 0.000000
0.333030 0.066003 0.000000
0.454629 0.088823 0.000000
0.546683 0.114271 0.000000
0.611444 0.148744 0.000000
0.660373 0.187323 0.000000
0.697353 0.226929 0.000000
0.725607 0.270225 0.000000
0.749653 0.311256 0.000000
0.769364 0.353827 0.000000
0.787520 0.394180 0.000000
0.803749 0.433752 0.000000
0.821686 0.468122 0.000000
0.840703 0.498606 0.000000
0.862258 0.524860 0.000000
0.885729 0.546683 0.000000
0.911861 0.564123 0.000000
0.939778 0.576656 0.000000
0.969445 0.584577 0.000000
1.000000 0.587113 0.000000
0.000000 0.062731 0.000000
0.170126 0.069557 0.000000
0.318036 0.082440 0.000000
0.434612 0.108460 0.000000
0.524860 0.137742 0.000000
0.586013 0.176297 0.000000
0.631888 0.218956 0.000000
0.666516 0.262610 0.000000
0.692445 0.309115 0.000000
0.714573 0.353309 0.000000
0.731377 0.398657 0.000000
0.747267 0.441903 0.000000
0.761523 0.483856 0.000000
0.779169 0.521927 0.000000
0.799508 0.555991 0.000000
0.823703 0.586013 0.000000
0.851256 0.611444 0.000000
0.884315 0.631856 0.000000
0.920477 0.646731 0.000000
0.959491 0.655525 0.000000
1.000000 0.658870 0.000000
0.000000 0.077021 0.000000
0.159336 0.085097 0.000000
0.299483 0.099083 0.000000
0.410482 0.127362 0.000000
0.498606 0.159297 0.000000
0.555991 0.200492 0.000000
0.599205 0.245557 0.000000
0.631612 0.291989 0.000000
0.655488 0.340698 0.000000
0.675081 0.387247 0.000000
0.689312 0.434211 0.000000
0.702906 0.479079 0.000000
0.715509 0.522443 0.000000
0.733068 0.562616 0.000000
0.754443 0.599205 0.000000
0.781044 0.631888 0.000000
0.812677 0.660373 0.000000
0.853304 0.683470 0.000000
0.898444 0.701225 0.000000
0.948095 0.711213 0.000000
1.000000 0.715442 0.000000
0.000000 0.093036 0.000000
0.147313 0.101089 0.000000
0.278431 0.115523 0.000000
0.382912 0.144968 0.000000
0.468122 0.178314 0.000000
0.521927 0.220831 0.000000
0.562616 0.266932 0.000000
0.592745 0.314785 0.000000
0.614654 0.364412 0.000000
0.631674 0.412263 0.000000
0.643571 0.460085 0.000000
0.655481 0.506043 0.000000
0.667198 0.550510 0.000000
0.685215 0.592745 0.000000
0.708011 0.631612 0.000000
0.737390 0.666516 0.000000
0.773071 0.697353 0.000000
0.821243 0.722415 0.000000
0.875363 0.742227 0.000000
0.936072 0.752960 0.000000
1.000000 0.758100 0.000000
0.000000 0.110510 0.000000
0.133598 0.118551 0.000000
0.254287 0.133177 0.000000
0.351558 0.162187 0.000000
0.433752 0.196251 0.000000
0.483856 0.238477 0.000000
0.522443 0.284491 0.000000
0.550510 0.332802 0.000000
0.570863 0.383047 0.000000
0.585394 0.431380 0.000000
0.595371 0.479394 0.000000
0.605877 0.525894 0.000000
0.616953 0.570863 0.000000
0.635588 0.614654 0.000000
0.659302 0.655488 0.000000
0.690885 0.692445 0.000000
0.729775 0.725607 0.000000
0.786131 0.752524 0.000000
0.849964 0.775143 0.000000
0.922645 0.787633 0.000000
1.000000 0.793300 0.000000
0.000000 0.129261 0.000000
0.118923 0.137706 0.000000
0.227771 0.151652 0.000000
0.317276 0.179597 0.000000
0.394180 0.212480 0.000000
0.441903 0.252733 0.000000
0.479079 0.297094 0.000000
0.506043 0.344519 0.000000
0.525894 0.394123 0.000000
0.538738 0.442483 0.000000
0.547973 0.490952 0.000000
0.557517 0.538738 0.000000
0.568620 0.585394 0.000000
0.587737 0.631674 0.000000
0.612753 0.675081 0.000000
0.646691 0.714573 0.000000
0.688744 0.749653 0.000000
0.752065 0.778669 0.000000
0.824421 0.803172 0.000000
0.909070 0.815722 0.000000
1.000000 0.822875 0.000000
0.000000 0.151742 0.000000
0.104646 0.158969 0.000000
0.201548 0.172795 0.000000
0.282905 0.199218 0.000000
0.353827 0.230636 0.000000
0.398657 0.268623 0.000000
0.434211 0.310688 0.000000
0.460085 0.356429 0.000000
0.479394 0.404629 0.000000
0.490952 0.452027 0.000000
0.500000 0.500000 0.000000
0.509048 0.547973 0.000000
0.520606 0.595371 0.000000
0.539915 0.643571 0.000000
0.565789 0.689312 0.000000
0.601343 0.731377 0.000000
0.646173 0.769364 0.000000
0.717095 0.800782 0.000000
0.798452 0.827205 0.000000
0.895354 0.841031 0.000000
1.000000 0.848258 0.000000
0.000000 0.177125 0.000000
0.090930 0.184278 0.000000
0.175579 0.196828 0.000000
0.247935 0.221331 0.000000
0.311256 0.250347 0.000000
0.353309 0.285427 0.000000
0.387247 0.324919 0.000000
0.412263 0.368326 0.000000
0.431380 0.414606 0.000000
0.442483 0.461262 0.000000
0.452027 0.509048 0.000000
0.461262 0.557517 0.000000
0.474106 0.605877 0.000000
0.493957 0.655481 0.000000
0.520921 0.702906 0.000000
0.558097 0.747267 0.000000
0.605820 0.787520 0.000000
0.682724 0.820403 0.000000
0.772229 0.848348 0.000000
0.881077 0.862294 0.000000
1.000000 0.870739 0.000000
0.000000 0.206700 0.000000
0.077355 0.212367 0.000000
0.150036 0.224857 0.000000
0.213869 0.247476 0.000000
0.270225 0.274393 0.000000
0.309115 0.307555 0.000000
0.340698 0.344512 0.000000
0.364412 0.385346 0.000000
0.383047 0.429137 0.000000
0.394123 0.474106 0.000000
0.404629 0.520606 0.000000
0.414606 0.568620 0.000000
0.429137 0.616953 0.000000
0.449490 0.667198 0.000000
0.477557 0.715509 0.000000
0.516144 0.761523 0.000000
0.566248 0.803749 0.000000
0.648442 0.837813 0.000000
0.745713 0.866823 0.000000
0.866402 0.881449 0.000000
1.000000 0.889490 0.000000
0.000000 0.241900 0.000000
0.063928 0.247040 0.000000
0.124637 0.257773 0.000000
0.178757 0.277585 0.000000
0.226929 0.302647 0.000000
0.262610 0.333484 0.000000
0.291989 0.368388 0.000000
0.314785 0.407255 0.000000
0.332802 0.449490 0.000000
0.344519 0.493957 0.000000
0.356429 0.539915 0.000000
0.368326 0.587737 0.000000
0.385346 0.635588 0.000000
0.407255 0.685215 0.000000
0.437384 0.733068 0.000000
0.478073 0.779169 0.000000
0.531878 0.821686 0.000000
0.617088 0.855032 0.000000
0.721569 0.884477 0.000000
0.852687 0.898911 0.000000
1.000000 0.906964 0.000000
0.000000 0.284558 0.000000
0.051905 0.288787 0.000000
0.101556 0.298775 0.000000
0.146696 0.316530 0.000000
0.187323 0.339627 0.000000
0.218956 0.368112 0.000000
0.245557 0.400795 0.000000
0.266932 0.437384 0.000000
0.284491 0.477557 0.000000
0.297094 0.520921 0.000000
0.310688 0.565789 0.000000
0.324919 0.612753 0.000000
0.344512 0.659302 0.000000
0.368388 0.708011 0.000000
0.400795 0.754443 0.000000
0.444009 0.799508 0.000000
0.501394 0.840703 0.000000
0.589518 0.872638 0.000000
0.700517 0.900917 0.000000
0.840664 0.914903 0.000000
1.000000 0.922979 0.000000
0.000000 0.341130 0.000000
0.040509 0.344475 0.000000
0.079523 0.353269 0.000000
0.115685 0.368144 0.000000
0.148744 0.388556 0.000000
0.176297 0.413987 0.000000
0.200492 0.444009 0.000000
0.220831 0.478073 0.000000
0.238477 0.516144 0.000000
0.252733 0.558097 0.000000
0.268623 0.601343 0.000000
0.285427 0.646691 0.000000
0.307555 0.690885 0.000000
0.333484 0.737390 0.000000
0.368112 0.781044 0.000000
0.413987 0.823703 0.000000
0.475140 0.862258 0.000000
0.565388 0.891540 0.000000
0.681964 0.917560 0.000000
0.829874 0.930443 0.000000
1.000000 0.937269 0.000000
0.000000 0.412887 0.000000
0.030555 0.415423 0.000000
0.060222 0.423344 0.000000
0.088139 0.435877 0.000000
0.114271 0.453317 0.000000
0.137742 0.475140 0.000000
0.159297 0.501394 0.000000
0.178314 0.531878 0.000000
0.196251 0.566248 0.000000
0.212480 0.605820 0.000000
0.230636 0.646173 0.000000
0.250347 0.688744 0.000000
0.274393 0.729775 0.000000
0.302647 0.773071 0.000000
0.339627 0.812677 0.000000
0.388556 0.851256 0.000000
0.453317 0.885729 0.000000
0.545371 0.911177 0.000000
0.666970 0.933997 0.000000
0.821222 0.945029 0.000000
1.000000 0.950435 0.000000
0.000000 0.507150 0.000000
0.023344 0.509828 0.000000
0.046171 0.517367 0.000000
0.067948 0.529086 0.000000
0.088823 0.545371 0.000000
0.108460 0.565388 0.000000
0.127362 0.589518 0.000000
0.144968 0.617088 0.000000
0.162187 0.648442 0.000000
[...]
POINT_DATA 2205 
VECTORS pos float 
0.000000 0.000000 0.000000
0.197660 0.000000 0.000000
0.364508 0.000000 0.000000
0.492850 0.000000 0.000000
0.587113 0.000000 0.000000
0.658870 0.000000 0.000000
0.715442 0.000000 0.000000
0.758100 0.000000 0.000000
0.793300 0.000000 0.000000
0.822875 0.000000 0.000000
0.848258 0.000000 0.000000
0.870739 0.000000 0.000000
0.889490 0.000000 0.000000
0.906964 0.000000 0.000000
0.922979 0.000000 0.000000
0.937269 0.000000 0.000000
0.950435 0.000000 0.000000
0.963619 0.000000 0.000000
0.976040 0.000000 0.000000
0.987985 0.000000 0.000000
1.000000 0.000000 0.000000
0.000000 0.012015 0.000000
0.196115 0.013501 0.000000
0.361854 0.016838 0.000000
0.490172 0.023344 0.000000
0.584577 0.030555 0.000000
0.655525 0.040509 0.000000
0.711213 0.051905 0.000000
0.752960 0.063928 0.000000
0.787633 0.077355 0.000000
0.815722 0.090930 0.000000
0.841031 0.104646 0.000000
0.862294 0.118923 0.000000
0.881449 0.133598 0.000000
0.898911 0.147313 0.000000
0.914903 0.159336 0.000000
0.930443 0.170126 0.000000
0.945029 0.178778 0.000000
0.959100 0.186205 0.000000
0.973016 0.192047 0.000000
0.986499 0.196115 0.000000
1.000000 0.197660 0.000000
0.000000 0.023960 0.000000
0.192047 0.026984 0.000000
0.355188 0.033449 0.000000
0.482633 0.046171 0.000000
0.576656 0.060222 0.000000
0.646731 0.079523 0.000000
0.701225 0.101556 0.000000
0.742227 0.124637 0.000000
0.775143 0.150036 0.000000
0.803172 0.175579 0.000000
0.827205 0.201548 0.000000
0.848348 0.227771 0.000000
0.866823 0.254287 0.000000
0.884477 0.278431 0.000000
0.900917 0.299483 0.000000
0.917560 0.318036 0.000000
0.933997 0.333030 0.000000
0.950226 0.345737 0.000000
0.966551 0.355188 0.000000
0.983162 0.361854 0.000000
1.000000 0.364508 0.000000
0.000000 0.036381 0.000000
0.186205 0.040900 0.000000
0.345737 0.049774 0.000000
0.470914 0.067948 0.000000
0.564123 0.088139 0.000000
0.631856 0.115685 0.000000
0.683470 0.146696 0.000000
0.722415 0.178757 0.000000
0.752524 0.213869 0.000000
0.778669 0.247935 0.000000
0.800782 0.282905 0.000000
0.820403 0.317276 0.000000
0.837813 0.351558 0.000000
0.855032 0.382912 0.000000
0.872638 0.410482 0.000000
0.891540 0.434612 0.000000
0.911177 0.454629 0.000000
0.932052 0.470914 0.000000
0.953829 0.482633 0.000000
0.976656 0.490172 0.000000
1.000000 0.492850 0.000000
0.000000 0.049565 0.000000
0.178778 0.054971 0.000000
0.333030 0.066003 0.000000
0.454629 0.088823 0.000000
0.546683 0.114271 0.000000
0.611444 0.148744 0.000000
0.660373 0.187323 0.000000
0.697353 0.226929 0.000000
0.725607 0.270225 0.000000
0.749653 0.311256 0.000000
0.769364 0.353827 0.000000
0.787520 0.394180 0.000000
0.803749 0.433752 0.000000
0.821686 0.468122 0.000000
0.840703 0.498606 0.000000
0.862258 0.524860 0.000000
0.885729 0.546683 0.000000
0.911861 0.564123 0.000000
0.939778 0.576656 0.000000
0.969445 0.584577 0.000000
1.000000 0.587113 0.000000
0.000000 0.062731 0.000000
0.170126 0.069557 0.000000
0.318036 0.082440 0.000000
0.434612 0.108460 0.000000
0.524860 0.137742 0.000000
0.586013 0.176297 0.000000
0.631888 0.218956 0.000000
0.666516 0.262610 0.000000
0.692445 0.309115 0.000000
0.714573 0.353309 0.000000
0.731377 0.398657 0.000000
0.747267 0.441903 0.000000
0.761523 0.483856 0.000000
0.779169 0.521927 0.000000
0.799508 0.555991 0.000000
0.823703 0.586013 0.000000
0.851256 0.611444 0.000000
0.884315 0.631856 0.000000
0.920477 0.646731 0.000000
0.959491 0.655525 0.000000
1.000000 0.658870 0.000000
0.000000 0.077021 0.000000
0.159336 0.085097 0.000000
0.299483 0.099083 0.000000
0.410482 0.127362 0.000000
0.498606 0.159297 0.000000
0.555991 0.200492 0.000000
0.599205 0.245557 0.000000
0.631612 0.291989 0.000000
0.655488 0.340698 0.000000
0.675081 0.387247 0.000000
0.689312 0.434211 0.000000
0.702906 0.479079 0.000000
0.715509 0.522443 0.000000
0.733068 0.562616 0.000000
0.754443 0.599205 0.000000
0.781044 0.631888 0.000000
0.812677 0.660373 0.000000
0.853304 0.683470 0.000000
0.898444 0.701225 0.000000
0.948095 0.711213 0.000000
1.000000 0.715442 0.000000
0.000000 0.093036 0.000000
0.147313 0.101089 0.000000
0.278431 0.115523 0.000000
0.382912 0.144968 0.000000
0.468122 0.178314 0.000000
0.521927 0.220831 0.000000
0.562616 0.266932 0.000000
0.592745 0.314785 0.000000
0.614654 0.364412 0.000000
0.631674 0.412263 0.000000
0.643571 0.460085 0.000000
0.655481 0.506043 0.000000
0.667198 0.550510 0.000000
0.685215 0.592745 0.000000
0.708011 0.631612 0.000000
0.737390 0.666516 0.000000
0.773071 0.697353 0.000000
0.821243 0.722415 0.000000
0.875363 0.742227 0.000000
0.936072 0.752960 0.000000
1.000000 0.758100 0.000000
0.000000 0.110510 0.000000
0.133598 0.118551 0.000000
0.254287 0.133177 0.000000
0.351558 0.162187 0.000000
0.433752 0.196251 0.000000
0.483856 0.238477 0.000000
0.522443 0.284491 0.000000
0.550510 0.332802 0.000000
0.570863 0.383047 0.000000
0.585394 0.431380 0.000000
0.595371 0.479394 0.000000
0.605877 0.525894 0.000000
0.616953 0.570863 0.000000
0.635588 0.614654 0.000000
0.659302 0.655488 0.000000
0.690885 0.692445 0.000000
0.729775 0.725607 0.000000
0.786131 0.752524 0.000000
0.849964 0.775143 0.000000
0.922645 0.787633 0.000000
1.000000 0.793300 0.000000
0.000000 0.129261 0.000000
0.118923 0.137706 0.000000
0.227771 0.151652 0.000000
0.317276 0.179597 0.000000
0.394180 0.212480 0.000000
0.441903 0.252733 0.000000
0.479079 0.297094 0.000000
0.506043 0.344519 0.000000
0.525894 0.394123 0.000000
0.538738 0.442483 0.000000
0.547973 0.490952 0.000000
0.557517 0.538738 0.000000
0.568620 0.585394 0.000000
0.587737 0.631674 0.000000
0.612753 0.675081 0.000000
0.646691 0.714573 0.000000
0.688744 0.749653 0.000000
0.752065 0.778669 0.000000
0.824421 0.803172 0.000000
0.909070 0.815722 0.000000
1.000000 0.822875 0.000000
0.000000 0.151742 0.000000
0.104646 0.158969 0.000000
0.201548 0.172795 0.000000
0.282905 0.199218 0.000000
0.353827 0.230636 0.000000
0.398657 0.268623 0.000000
0.434211 0.310688 0.000000
0.460085 0.356429 0.000000
0.479394 0.404629 0.000000
0.490952 0.452027 0.000000
0.500000 0.500000 0.000000
0.509048 0.547973 0.000000
0.520606 0.595371 0.000000
0.539915 0.643571 0.000000
0.565789 0.689312 0.000000
0.601343 0.731377 0.000000
0.646173 0.769364 0.000000
0.717095 0.800782 0.000000
0.798452 0.827205 0.000000
0.895354 0.841031 0.000000
1.000000 0.848258 0.000000
0.000000 0.177125 0.000000
0.090930 0.184278 0.000000
0.175579 0.196828 0.000000
0.247935 0.221331 0.000000
0.311256 0.250347 0.000000
0.353309 0.285427 0.000000
0.387247 0.324919 0.000000
0.412263 0.368326 0.000000
0.431380 0.414606 0.000000
0.442483 0.461262 0.000000
0.452027 0.509048 0.000000
0.461262 0.557517 0.000000
0.474106 0.605877 0.000000
0.493957 0.655481 0.000000
0.520921 0.702906 0.000000
0.558097 0.747267 0.000000
0.605820 0.787520 0.000000
0.682724 0.820403 0.000000
0.772229 0.848348 0.000000
0.881077 0.862294 0.000000
1.000000 0.870739 0.000000
0.000000 0.206700 0.000000
0.077355 0.212367 0.000000
0.150036 0.224857 0.000000
0.213869 0.247476 0.000000
0.270225 0.274393 0.000000
0.309115 0.307555 0.000000
0.340698 0.344512 0.000000
0.364412 0.385346 0.000000
0.383047 0.429137 0.000000
0.394123 0.474106 0.000000
0.404629 0.520606 0.000000
0.414606 0.568620 0.000000
0.429137 0.616953 0.000000
0.449490 0.667198 0.000000
0.477557 0.715509 0.000000
0.516144 0.761523 0.000000
0.566248 0.803749 0.000000
0.648442 0.837813 0.000000
0.745713 0.866823 0.000000
0.866402 0.881449 0.000000
1.000000 0.889490 0.000000
0.000000 0.241900 0.000000
0.063928 0.247040 0.000000
0.124637 0.257773 0.000000
0.178757 0.277585 0.000000
0.226929 0.302647 0.000000
0.262610 0.333484 0.000000
0.291989 0.368388 0.000000
0.314785 0.407255 0.000000
0.332802 0.449490 0.000000
0.344519 0.493957 0.000000
0.356429 0.539915 0.000000
0.368326 0.587737 0.000000
0.385346 0.635588 0.000000
0.407255 0.685215 0.000000
0.437384 0.733068 0.000000
0.478073 0.779169 0.000000
0.531878 0.821686 0.000000
0.617088 0.855032 0.000000
0.721569 0.884477 0.000000
0.852687 0.898911 0.000000
1.000000 0.906964 0.000000
0.000000 0.284558 0.000000
0.051905 0.288787 0.000000
0.101556 0.298775 0.000000
0.146696 0.316530 0.000000
0.187323 0.339627 0.000000
0.218956 0.368112 0.000000
0.245557 0.400795 0.000000
0.266932 0.437384 0.000000
0.284491 0.477557 0.000000
0.297094 0.520921 0.000000
0.310688 0.565789 0.000000
0.324919 0.612753 0.000000
0.344512 0.659302 0.000000
0.368388 0.708011 0.000000
0.400795 0.754443 0.000000
0.444009 0.799508 0.000000
0.501394 0.840703 0.000000
0.589518 0.872638 0.000000
0.700517 0.900917 0.000000
0.840664 0.914903 0.000000
1.000000 0.922979 0.000000
0.000000 0.341130 0.000000
0.040509 0.344475 0.000000
0.079523 0.353269 0.000000
0.115685 0.368144 0.000000
0.148744 0.388556 0.000000
0.176297 0.413987 0.000000
0.200492 0.444009 0.000000
0.220831 0.478073 0.000000
0.238477 0.516144 0.000000
0.252733 0.558097 0.000000
0.268623 0.601343 0.000000
0.285427 0.646691 0.000000
0.307555 0.690885 0.000000
0.333484 0.737390 0.000000
0.368112 0.781044 0.000000
0.413987 0.823703 0.000000
0.475140 0.862258 0.000000
0.565388 0.891540 0.000000
0.681964 0.917560 0.000000
0.829874 0.930443 0.000000
1.000000 0.937269 0.000000
0.000000 0.412887 0.000000
0.030555 0.415423 0.000000
0.060222 0.423344 0.000000
0.088139 0.435877 0.000000
0.114271 0.453317 0.000000
0.137742 0.475140 0.000000
0.159297 0.501394 0.000000
0.178314 0.531878 0.000000
0.196251 0.566248 0.000000
0.212480 0.605820 0.000000
0.230636 0.646173 0.000000
0.250347 0.688744 0.000000
0.274393 0.729775 0.000000
0.302647 0.773071 0.000000
0.339627 0.812677 0.000000
0.388556 0.851256 0.000000
0.453317 0.885729 0.000000
0.545371 0.911177 0.000000
0.666970 0.933997 0.000000
0.821222 0.945029 0.000000
1.000000 0.950435 0.000000
0.000000 0.507150 0.000000
0.023344 0.509828 0.000000
0.046171 0.517367 0.000000
0.067948 0.529086 0.000000
0.088823 0.545371 0.000000
0.108460 0.565388 0.000000
0.127362 0.589518 0.000000
0.144968 0.617088 0.000000
0.162187 0.648442 0.000000
0.179597 0.682724 0.000000
0.199218 0.717095 0.000000
0.221331 0.752065 0.000000
0.247476 0.786131 0.000000
0.277585 0.821243 0.000000
0.316530 0.853304 0.000000
0.368144 0.884315 0.000000
0.435877 0.911861 0.000000
0.529086 0.932052 0.000000
0.654263 0.950226 0.000000
0.813795 0.959100 0.000000
1.000000 0.963619 0.000000
0.000000 0.635492 0.000000
0.016838 0.638146 0.000000
0.033449 0.644812 0.000000
0.049774 0.654263 0.000000
0.066003 0.666970 0.000000
0.082440 0.681964 0.000000
0.099083 0.700517 0.000000
0.115523 0.721569 0.000000
0.133177 0.745713 0.000000
0.151652 0.772229 0.000000
0.172795 0.798452 0.000000
0.196828 0.824421 0.000000
0.224857 0.849964 0.000000
0.257773 0.875363 0.000000
0.298775 0.898444 0.000000
0.353269 0.920477 0.000000
0.423344 0.939778 0.000000
0.517367 0.953829 0.000000
0.644812 0.966551 0.000000
0.807953 0.973016 0.000000
1.000000 0.976040 0.000000
0.000000 0.802340 0.000000
0.013501 0.803885 0.000000
0.026984 0.807953 0.000000
0.040900 0.813795 0.000000
0.054971 0.821222 0.000000
0.069557 0.829874 0.000000
0.085097 0.840664 0.000000
0.101089 0.852687 0.000000
0.118551 0.866402 0.000000
0.137706 0.881077 0.000000
0.158969 0.895354 0.000000
0.184278 0.909070 0.000000
0.212367 0.922645 0.000000
0.247040 0.936072 0.000000
0.288787 0.948095 0.000000
0.344475 0.959491 0.000000
0.415423 0.969445 0.000000
0.509828 0.976656 0.000000
0.638146 0.983162 0.000000
0.803885 0.986499 0.000000
1.000000 0.987985 0.000000
0.000000 1.000000 0.000000
0.012015 1.000000 0.000000
0.023960 1.000000 0.000000
0.036381 1.000000 0.000000
0.049565 1.000000 0.000000
0.062731 1.000000 0.000000
0.077021 1.000000 0.000000
0.093036 1.000000 0.000000
0.110510 1.000000 0.000000
0.129261 1.000000 0.000000
0.151742 1.000000 0.000000
0.177125 1.000000 0.000000
0.206700 1.000000 0.000000
0.241900 1.000000 0.000000
0.284558 1.000000 0.000000
0.341130 1.000000 0.000000
0.412887 1.000000 0.000000
0.507150 1.000000 0.000000
0.635492 1.000000 0.000000
0.802340 1.000000 0.000000
1.000000 1.000000 0.000000
0.000000 0.000000 0.082500
0.197660 0.000000 0.082500
0.364508 0.000000 0.082500
0.492850 0.000000 0.082500
0.587113 0.000000 0.082500
0.658870 0.000000 0.082500
0.715442 0.000000 0.082500
0.758100 0.000000 0.082500
0.793300 0.000000 0.082500
0.822875 0.000000 0.082500
0.848258 0.000000 0.082500
0.870739 0.000000 0.082500
0.889490 0.000000 0.082500
0.906964 0.000000 0.082500
0.922979 0.000000 0.082500
0.937269 0.000000 0.082500
0.950435 0.000000 0.082500
0.963619 0.000000 0.082500
0.976040 0.000000 0.082500
0.987985 0.000000 0.082500
1.000000 0.000000 0.082500
0.000000 0.012015 0.082500
0.196115 0.013501 0.082500
0.361854 0.016838 0.082500
0.490172 0.023344 0.082500
0.584577 0.030555 0.082500
0.655525 0.040509 0.082500
0.711213 0.051905 0.082500
0.752960 0.063928 0.082500
0.787633 0.077355 0.082500
0.815722 0.090930 0.082500
0.841031 0.104646 0.082500
0.862294 0.118923 0.082500
0.881449 0.133598 0.082500
0.898911 0.147313 0.082500
0.914903 0.159336 0.082500
0.930443 0.170126 0.082500
0.945029 0.178778 0.082500
0.959100 0.186205 0.082500
0.973016 0.192047 0.082500
0.986499 0.196115 0.082500
1.000000 0.197660 0.082500
0.000000 0.023960 0.082500
0.192047 0.026984 0.082500
0.355188 0.033449 0.082500
0.482633 0.046171 0.082500
0.576656 0.060222 0.082500
0.646731 0.079523 0.082500
0.701225 0.101556 0.082500
0.742227 0.124637 0.082500
0.775143 0.150036 0.082500
0.803172 0.175579 0.082500
0.827205 0.201548 0.082500
0.848348 0.227771 0.082500
0.866823 0.254287 0.082500
0.884477 0.278431 0.082500
0.900917 0.299483 0.082500
0.917560 0.318036 0.082500
0.933997 0.333030 0.082500
0.950226 0.345737 0.082500
0.966551 0.355188 0.082500
0.983162 0.361854 0.082500
1.000000 0.364508 0.082500
0.000000 0.036381 0.082500
0.186205 0.040900 0.082500
0.345737 0.049774 0.082500
0.470914 0.067948 0.082500
0.564123 0.088139 0.082500
0.631856 0.115685 0.082500
0.683470 0.146696 0.082500
0.722415 0.178757 0.082500
0.752524 0.213869 0.082500
0.778669 0.247935 0.082500
0.800782 0.282905 0.082500
0.820403 0.317276 0.082500
0.837813 0.351558 0.082500
0.855032 0.382912 0.082500
0.872638 0.410482 0.082500
0.891540 0.434612 0.082500
0.911177 0.454629 0.082500
0.932052 0.470914 0.082500
0.953829 0.482633 0.082500
0.976656 0.490172 0.082500
1.000000 0.492850 0.082500
0.000000 0.049565 0.082500
0.178778 0.054971 0.082500
0.333030 0.066003 0.082500
0.454629 0.088823 0.082500
0.546683 0.114271 0.082500
0.611444 0.148744 0.082500
0.660373 0.187323 0.082500
0.697353 0.226929 0.082500
0.725607 0.270225 0.082500
0.749653 0.311256 0.082500
0.769364 0.353827 0.082500
0.787520 0.394180 0.082500
0.803749 0.433752 0.082500
0.821686 0.468122 0.082500
0.840703 0.498606 0.082500
0.862258 0.524860 0.082500
0.885729 0.546683 0.082500
0.911861 0.564123 0.082500
0.939778 0.576656 0.082500
0.969445 0.584577 0.082500
1.000000 0.587113 0.082500
0.000000 0.062731 0.082500
0.170126 0.069557 0.082500
0.318036 0.082440 0.082500
0.434612 0.108460 0.082500
0.524860 0.137742 0.082500
0.586013 0.176297 0.082500
0.631888 0.218956 0.082500
0.666516 0.262610 0.082500
0.692445 0.309115 0.082500
0.714573 0.353309 0.082500
0.731377 0.398657 0.082500
0.747267 0.441903 0.082500
0.761523 0.483856 0.082500
0.779169 0.521927 0.082500
0.799508 0.555991 0.082500
0.823703 0.586013 0.082500
0.851256 0.611444 0.082500
0.884315 0.631856 0.082500
0.920477 0.646731 0.082500
0.959491 0.655525 0.082500
1.000000 0.658870 0.082500
0.000000 0.077021 0.082500
0.159336 0.085097 0.082500
0.299483 0.099083 0.082500
0.410482 0.127362 0.082500
0.498606 0.159297 0.082500
0.555991 0.200492 0.082500
0.599205 0.245557 0.082500
0.631612 0.291989 0.082500
0.655488 0.340698 0.082500
0.675081 0.387247 0.082500
0.689312 0.434211 0.082500
0.702906 0.479079 0.082500
0.715509 0.522443 0.082500
0.733068 0.562616 0.082500
0.754443 0.599205 0.082500
0.781044 0.631888 0.082500
0.812677 0.660373 0.082500
0.853304 0.683470 0.082500
0.898444 0.701225 0.082500
0.948095 0.711213 0.082500
1.000000 0.715442 0.082500
0.000000 0.093036 0.082500
0.147313 0.101089 0.082500
0.278431 0.115523 0.082500
0.382912 0.144968 0.082500
0.468122 0.178314 0.082500
0.521927 0.220831 0.082500
0.562616 0.266932 0.082500
0.592745 0.314785 0.082500
0.614654 0.364412 0.082500
0.631674 0.412263 0.082500
0.643571 0.460085 0.082500
0.655481 0.506043 0.082500
0.667198 0.550510 0.082500
0.685215 0.592745 0.082500
0.708011 0.631612 0.082500
0.737390 0.666516 0.082500
0.773071 0.697353 0.082500
0.821243 0.722415 0.082500
0.875363 0.742227 0.082500
0.936072 0.752960 0.082500
1.000000 0.758100 0.082500
0.000000 0.110510 0.082500
0.133598 0.118551 0.082500
0.254287 0.133177 0.082500
0.351558 0.162187 0.082500
0.433752 0.196251 0.082500
0.483856 0.238477 0.082500
0.522443 0.284491 0.082500
0.550510 0.332802 0.082500
0.570863 0.383047 0.082500
0.585394 0.431380 0.082500
0.595371 0.479394 0.082500
0.605877 0.525894 0.082500
0.616953 0.570863 0.082500
0.635588 0.614654 0.082500
0.659302 0.655488 0.082500
0.690885 0.692445 0.082500
0.729775 0.725607 0.082500
0.786131 0.752524 0.082500
0.849964 0.775143 0.082500
0.922645 0.787633 0.082500
1.000000 0.793300 0.082500
0.000000 0.129261 0.082500
0.118923 0.137706 0.082500
0.227771 0.151652 0.082500
0.317276 0.179597 0.082500
0.394180 0.212480 0.082500
0.441903 0.252733 0.082500
0.479079 0.297094 0.082500
0.506043 0.344519 0.082500
0.525894 0.394123 0.082500
0.538738 0.442483 0.082500
0.547973 0.490952 0.082500
0.557517 0.538738 0.082500
0.568620 0.585394 0.082500
0.587737 0.631674 0.082500
0.612753 0.675081 0.082500
0.646691 0.714573 0.082500
0.688744 0.749653 0.082500
0.752065 0.778669 0.082500
0.824421 0.803172 0.082500
0.909070 0.815722 0.082500
1.000000 0.822875 0.082500
0.000000 0.151742 0.082500
0.104646 0.158969 0.082500
0.201548 0.172795 0.082500
0.282905 0.199218 0.082500
0.353827 0.230636 0.082500
0.398657 0.268623 0.082500
0.434211 0.310688 0.082500
0.460085 0.356429 0.082500
0.479394 0.404629 0.082500
0.490952 0.452027 0.082500
0.500000 0.500000 0.082500
0.509048 0.547973 0.082500
0.520606 0.595371 0.082500
0.539915 0.643571 0.082500
0.565789 0.689312 0.082500
0.601343 0.731377 0.082500
0.646173 0.769364 0.082500
0.717095 0.800782 0.082500
0.798452 0.827205 0.082500
0.895354 0.841031 0.082500
1.000000 0.848258 0.082500
0.000000 0.177125 0.082500
0.090930 0.184278 0.082500
0.175579 0.196828 0.082500
0.247935 0.221331 0.082500
0.311256 0.250347 0.082500
0.353309 0.285427 0.082500
0.387247 0.324919 0.082500
0.412263 0.368326 0.082500
0.431380 0.414606 0.082500
0.442483 0.461262 0.082500
0.452027 0.509048 0.082500
0.461262 0.557517 0.082500
0.474106 0.605877 0.082500
0.493957 0.655481 0.082500
0.520921 0.702906 0.082500
0.558097 0.747267 0.082500
0.605820 0.787520 0.082500
0.682724 0.820403 0.082500
0.772229 0.848348 0.082500
0.881077 0.862294 0.082500
1.000000 0.870739 0.082500
0.000000 0.206700 0.082500
0.077355 0.212367 0.082500
0.150036 0.224857 0.082500
0.213869 0.247476 0.082500
0.270225 0.274393 0.082500
0.309115 0.307555 0.082500
0.340698 0.344512 0.082500
0.364412 0.385346 0.082500
0.383047 0.429137 0.082500
0.394123 0.474106 0.082500
0.404629 0.520606 0.082500
0.414606 0.568620 0.082500
0.429137 0.616953 0.082500
0.449490 0.667198 0.082500
0.477557 0.715509 0.082500
0.516144 0.761523 0.082500
0.566248 0.803749 0.082500
0.648442 0.837813 0.082500
0.745713 0.866823 0.082500
0.866402 0.881449 0.082500
1.000000 0.889490 0.082500
0.000000 0.241900 0.082500
0.063928 0.247040 0.082500
0.124637 0.257773 0.082500
0.178757 0.277585 0.082500
0.226929 0.302647 0.082500
0.262610 0.333484 0.082500
0.291989 0.368388 0.082500
0.314785 0.407255 0.082500
0.332802 0.449490 0.082500
0.344519 0.493957 0.082500
0.356429 0.539915 0.082500
0.368326 0.587737 0.082500
0.385346 0.635588 0.082500
0.407255 0.685215 0.082500
0.437384 0.733068 0.082500
0.478073 0.779169 0.082500
0.531878 0.821686 0.082500
0.617088 0.855032 0.082500
0.721569 0.884477 0.082500
0.852687 0.898911 0.082500
1.000000 0.906964 0.082500
0.000000 0.284558 0.082500
0.051905 0.288787 0.082500
0.101556 0.298775 0.082500
0.146696 0.316530 0.082500