# vtk DataFile Version 2.0
Mesh for Fierro
ASCII 
DATASET UNSTRUCTURED_GRID

POINTS 2205 float
0.000000 0.000000 0.000000
0.554203 0.000000 0.000000
0.887775 0.000000 0.000000
0.906271 0.000000 0.000000
0.922593 0.000000 0.000000
0.935982 0.000000 0.000000
0.946083 0.000000 0.000000
0.955384 0.000000 0.000000
0.962470 0.000000 0.000000
0.968177 0.000000 0.000000
0.972769 0.000000 0.000000
0.976398 0.000000 0.000000
0.979250 0.000000 0.000000
0.981606 0.000000 0.000000
0.983795 0.000000 0.000000
0.985980 0.000000 0.000000
0.988253 0.000000 0.000000
0.991048 0.000000 0.000000
0.994245 0.000000 0.000000
0.997694 0.000000 0.000000
1.000000 0.000000 0.000000
0.000000 0.002306 0.000000
0.562580 0.005416 0.000000
0.861576 0.029353 0.000000
0.877270 0.092570 0.000000
0.907268 0.105629 0.000000
0.922091 0.165009 0.000000
0.932639 0.217136 0.000000
0.938199 0.273957 0.000000
0.942011 0.332100 0.000000
0.945310 0.383193 0.000000
0.948580 0.429892 0.000000
0.951797 0.473655 0.000000
0.954829 0.514688 0.000000
0.958433 0.547932 0.000000
0.962523 0.575094 0.000000
0.967448 0.595906 0.000000
0.973092 0.610619 0.000000
0.980505 0.605327 0.000000
0.987965 0.584904 0.000000
0.994584 0.562580 0.000000
1.000000 0.554203 0.000000
0.000000 0.005755 0.000000
0.584904 0.012035 0.000000
0.837321 0.047525 0.000000
0.859174 0.136594 0.000000
0.900062 0.205798 0.000000
0.908905 0.303761 0.000000
0.911121 0.388521 0.000000
0.912155 0.471408 0.000000
0.908169 0.544631 0.000000
0.905526 0.596665 0.000000
0.900161 0.640258 0.000000
0.892669 0.674442 0.000000
0.884514 0.702650 0.000000
0.882477 0.724868 0.000000
0.885628 0.744307 0.000000
0.895129 0.763445 0.000000
0.909661 0.784169 0.000000
0.929794 0.810017 0.000000
0.952475 0.837321 0.000000
0.970647 0.861576 0.000000
1.000000 0.887775 0.000000
0.000000 0.008952 0.000000
0.605327 0.019495 0.000000
0.810017 0.070206 0.000000
0.857094 0.177377 0.000000
0.881197 0.293596 0.000000
0.881512 0.381747 0.000000
0.882112 0.469525 0.000000
0.868193 0.551000 0.000000
0.850035 0.609060 0.000000
0.832130 0.655355 0.000000
0.808408 0.698163 0.000000
0.787467 0.736224 0.000000
0.769273 0.771582 0.000000
0.764489 0.799798 0.000000
0.768519 0.822212 0.000000
0.780451 0.838182 0.000000
0.799466 0.849379 0.000000
0.822623 0.857094 0.000000
0.863406 0.859174 0.000000
0.907430 0.877270 0.000000
1.000000 0.906271 0.000000
0.000000 0.011747 0.000000
0.610619 0.026908 0.000000
0.784169 0.090339 0.000000
0.849379 0.200534 0.000000
0.847716 0.338458 0.000000
0.855067 0.426711 0.000000
0.845219 0.525860 0.000000
0.810720 0.595820 0.000000
0.779839 0.648161 0.000000
0.747215 0.690649 0.000000
0.713893 0.723237 0.000000
0.691787 0.746602 0.000000
0.669934 0.762424 0.000000
0.655397 0.778094 0.000000
0.648485 0.795973 0.000000
0.647985 0.819299 0.000000
0.661542 0.847716 0.000000
0.706404 0.881197 0.000000
0.794202 0.900062 0.000000
0.894371 0.907268 0.000000
1.000000 0.922593 0.000000
0.000000 0.014020 0.000000
0.595906 0.032552 0.000000
0.763445 0.104871 0.000000
0.838182 0.219549 0.000000
0.819299 0.352015 0.000000
0.830944 0.450436 0.000000
0.808605 0.539030 0.000000
0.765548 0.597570 0.000000
0.726978 0.645471 0.000000
0.686373 0.680902 0.000000
0.641802 0.708059 0.000000
0.600501 0.731167 0.000000
0.561989 0.753132 0.000000
0.543112 0.779786 0.000000
0.536896 0.805662 0.000000
0.549564 0.830944 0.000000
0.573289 0.855067 0.000000
0.618253 0.881512 0.000000
0.696239 0.908905 0.000000
0.834991 0.922091 0.000000
1.000000 0.935982 0.000000
0.000000 0.016205 0.000000
0.575094 0.037477 0.000000
0.744307 0.114372 0.000000
0.822212 0.231481 0.000000
0.795973 0.351515 0.000000
0.805662 0.463104 0.000000
0.769164 0.537514 0.000000
0.724105 0.590390 0.000000
0.675874 0.632518 0.000000
0.630487 0.661298 0.000000
0.583791 0.681658 0.000000
0.543928 0.700818 0.000000
0.508026 0.716724 0.000000
0.481623 0.741259 0.000000
0.462486 0.769164 0.000000
0.460970 0.808605 0.000000
0.474140 0.845219 0.000000
0.530475 0.882112 0.000000
0.611479 0.911121 0.000000
0.782864 0.932639 0.000000
1.000000 0.946083 0.000000
0.000000 0.018394 0.000000
0.547932 0.041567 0.000000
0.724868 0.117523 0.000000
0.799798 0.235511 0.000000
0.778094 0.344603 0.000000
0.779786 0.456888 0.000000
0.741259 0.518377 0.000000
0.693355 0.569568 0.000000
0.642283 0.602638 0.000000
0.594757 0.626402 0.000000
0.546149 0.641814 0.000000
0.501025 0.654515 0.000000
0.460194 0.668019 0.000000
0.430432 0.693355 0.000000
0.409610 0.724105 0.000000
0.402430 0.765548 0.000000
0.404180 0.810720 0.000000
0.449000 0.868193 0.000000
0.528592 0.912155 0.000000
0.726043 0.938199 0.000000
1.000000 0.955384 0.000000
0.000000 0.020750 0.000000
0.514688 0.045171 0.000000
0.702650 0.115486 0.000000
0.771582 0.230727 0.000000
0.762424 0.330066 0.000000
0.753132 0.438011 0.000000
0.716724 0.491974 0.000000
0.668019 0.539806 0.000000
0.615223 0.565226 0.000000
0.567098 0.585643 0.000000
0.519717 0.595027 0.000000
0.476414 0.605026 0.000000
0.434774 0.615223 0.000000
0.397362 0.642283 0.000000
0.367482 0.675874 0.000000
0.354529 0.726978 0.000000
0.351839 0.779839 0.000000
0.390940 0.850035 0.000000
0.455369 0.908169 0.000000
0.667900 0.942011 0.000000
1.000000 0.962470 0.000000
0.000000 0.023602 0.000000
0.473655 0.048203 0.000000
0.674442 0.107331 0.000000
0.736224 0.212533 0.000000
0.746602 0.308213 0.000000
0.731167 0.399499 0.000000
0.700818 0.456072 0.000000
0.654515 0.498975 0.000000
0.605026 0.523586 0.000000
0.555699 0.540328 0.000000
0.506912 0.547595 0.000000
0.459672 0.555699 0.000000
0.414357 0.567098 0.000000
0.373598 0.594757 0.000000
0.338702 0.630487 0.000000
0.319098 0.686373 0.000000
0.309351 0.747215 0.000000
0.344645 0.832130 0.000000
0.403335 0.905526 0.000000
0.616807 0.945310 0.000000
1.000000 0.968177 0.000000
0.000000 0.027231 0.000000
0.429892 0.051420 0.000000
0.640258 0.099839 0.000000
0.698163 0.191592 0.000000
0.723237 0.286107 0.000000
0.708059 0.358198 0.000000
0.681658 0.416209 0.000000
0.641814 0.453851 0.000000
0.595027 0.480283 0.000000
0.547595 0.493088 0.000000
0.500000 0.500000 0.000000
0.452405 0.506912 0.000000
0.404973 0.519717 0.000000
0.358186 0.546149 0.000000
0.318342 0.583791 0.000000
0.291941 0.641802 0.000000
0.276763 0.713893 0.000000
0.301837 0.808408 0.000000
0.359742 0.900161 0.000000
0.570108 0.948580 0.000000
1.000000 0.972769 0.000000
0.000000 0.031823 0.000000
0.383193 0.054690 0.000000
0.596665 0.094474 0.000000
0.655355 0.167870 0.000000
0.690649 0.252785 0.000000
0.680902 0.313627 0.000000
0.661298 0.369513 0.000000
0.626402 0.405243 0.000000
0.585643 0.432902 0.000000
0.540328 0.444301 0.000000
0.493088 0.452405 0.000000
0.444301 0.459672 0.000000
0.394974 0.476414 0.000000
0.345485 0.501025 0.000000
0.299182 0.543928 0.000000
0.268833 0.600501 0.000000
0.253398 0.691787 0.000000
0.263776 0.787467 0.000000
0.325558 0.892669 0.000000
0.526345 0.951797 0.000000
1.000000 0.976398 0.000000
0.000000 0.037530 0.000000
0.332100 0.057989 0.000000
0.544631 0.091831 0.000000
0.609060 0.149965 0.000000
0.648161 0.220161 0.000000
0.645471 0.273022 0.000000
0.632518 0.324126 0.000000
0.602638 0.357717 0.000000
0.565226 0.384777 0.000000
0.523586 0.394974 0.000000
0.480283 0.404973 0.000000
0.432902 0.414357 0.000000
0.384777 0.434774 0.000000
0.331981 0.460194 0.000000
0.283276 0.508026 0.000000
0.246868 0.561989 0.000000
0.237576 0.669934 0.000000
0.228418 0.769273 0.000000
0.297350 0.884514 0.000000
0.485312 0.954829 0.000000
1.000000 0.979250 0.000000
0.000000 0.044616 0.000000
0.273957 0.061801 0.000000
0.471408 0.087845 0.000000
0.551000 0.131807 0.000000
0.595820 0.189280 0.000000
0.597570 0.234452 0.000000
0.590390 0.275895 0.000000
0.569568 0.306645 0.000000
0.539806 0.331981 0.000000
0.498975 0.345485 0.000000
0.453851 0.358186 0.000000
0.405243 0.373598 0.000000
0.357717 0.397362 0.000000
0.306645 0.430432 0.000000
0.258741 0.481623 0.000000
0.220214 0.543112 0.000000
0.221906 0.655397 0.000000
0.200202 0.764489 0.000000
0.275132 0.882477 0.000000
0.452068 0.958433 0.000000
1.000000 0.981606 0.000000
0.000000 0.053917 0.000000
0.217136 0.067361 0.000000
0.388521 0.088879 0.000000
0.469525 0.117888 0.000000
0.525860 0.154781 0.000000
0.539030 0.191395 0.000000
0.537514 0.230836 0.000000
0.518377 0.258741 0.000000
0.491974 0.283276 0.000000
0.456072 0.299182 0.000000
0.416209 0.318342 0.000000
0.369513 0.338702 0.000000
0.324126 0.367482 0.000000
0.275895 0.409610 0.000000
0.230836 0.462486 0.000000
0.194338 0.536896 0.000000
0.204027 0.648485 0.000000
0.177788 0.768519 0.000000
0.255693 0.885628 0.000000
0.424906 0.962523 0.000000
1.000000 0.983795 0.000000
0.000000 0.064018 0.000000
0.165009 0.077909 0.000000
0.303761 0.091095 0.000000
0.381747 0.118488 0.000000
0.426711 0.144933 0.000000
0.450436 0.169056 0.000000
0.463104 0.194338 0.000000
0.456888 0.220214 0.000000
0.438011 0.246868 0.000000
0.399499 0.268833 0.000000
0.358198 0.291941 0.000000
0.313627 0.319098 0.000000
0.273022 0.354529 0.000000
0.234452 0.402430 0.000000
0.191395 0.460970 0.000000
0.169056 0.549564 0.000000
0.180701 0.647985 0.000000
0.161818 0.780451 0.000000
0.236555 0.895129 0.000000
0.404094 0.967448 0.000000
1.000000 0.985980 0.000000
0.000000 0.077407 0.000000
0.105629 0.092732 0.000000
0.205798 0.099938 0.000000
0.293596 0.118803 0.000000
0.338458 0.152284 0.000000
0.352015 0.180701 0.000000
0.351515 0.204027 0.000000
0.344603 0.221906 0.000000
0.330066 0.237576 0.000000
0.308213 0.253398 0.000000
0.286107 0.276763 0.000000
0.252785 0.309351 0.000000
0.220161 0.351839 0.000000
0.189280 0.404180 0.000000
0.154781 0.474140 0.000000
0.144933 0.573289 0.000000
0.152284 0.661542 0.000000
0.150621 0.799466 0.000000
0.215831 0.909661 0.000000
0.389381 0.973092 0.000000
1.000000 0.988253 0.000000
0.000000 0.093729 0.000000
0.092570 0.122730 0.000000
0.136594 0.140826 0.000000
0.177377 0.142906 0.000000
0.200534 0.150621 0.000000
0.219549 0.161818 0.000000
0.231481 0.177788 0.000000
0.235511 0.200202 0.000000
0.230727 0.228418 0.000000
[...]
POINT_DATA 2205 
VECTORS pos float 
0.000000 0.000000 0.000000
0.554203 0.000000 0.000000
0.887775 0.000000 0.000000
0.906271 0.000000 0.000000
0.922593 0.000000 0.000000
0.935982 0.000000 0.000000
0.946083 0.000000 0.000000
0.955384 0.000000 0.000000
0.962470 0.000000 0.000000
0.968177 0.000000 0.000000
0.972769 0.000000 0.000000
0.976398 0.000000 0.000000
0.979250 0.000000 0.000000
0.981606 0.000000 0.000000
0.983795 0.000000 0.000000
0.985980 0.000000 0.000000
0.988253 0.000000 0.000000
0.991048 0.000000 0.000000
0.994245 0.000000 0.000000
0.997694 0.000000 0.000000
1.000000 0.000000 0.000000
0.000000 0.002306 0.000000
0.562580 0.005416 0.000000
0.861576 0.029353 0.000000
0.877270 0.092570 0.000000
0.907268 0.105629 0.000000
0.922091 0.165009 0.000000
0.932639 0.217136 0.000000
0.938199 0.273957 0.000000
0.942011 0.332100 0.000000
0.945310 0.383193 0.000000
0.948580 0.429892 0.000000
0.951797 0.473655 0.000000
0.954829 0.514688 0.000000
0.958433 0.547932 0.000000
0.962523 0.575094 0.000000
0.967448 0.595906 0.000000
0.973092 0.610619 0.000000
0.980505 0.605327 0.000000
0.987965 0.584904 0.000000
0.994584 0.562580 0.000000
1.000000 0.554203 0.000000
0.000000 0.005755 0.000000
0.584904 0.012035 0.000000
0.837321 0.047525 0.000000
0.859174 0.136594 0.000000
0.900062 0.205798 0.000000
0.908905 0.303761 0.000000
0.911121 0.388521 0.000000
0.912155 0.471408 0.000000
0.908169 0.544631 0.000000
0.905526 0.596665 0.000000
0.900161 0.640258 0.000000
0.892669 0.674442 0.000000
0.884514 0.702650 0.000000
0.882477 0.724868 0.000000
0.885628 0.744307 0.000000
0.895129 0.763445 0.000000
0.909661 0.784169 0.000000
0.929794 0.810017 0.000000
0.952475 0.837321 0.000000
0.970647 0.861576 0.000000
1.000000 0.887775 0.000000
0.000000 0.008952 0.000000
0.605327 0.019495 0.000000
0.810017 0.070206 0.000000
0.857094 0.177377 0.000000
0.881197 0.293596 0.000000
0.881512 0.381747 0.000000
0.882112 0.469525 0.000000
0.868193 0.551000 0.000000
0.850035 0.609060 0.000000
0.832130 0.655355 0.000000
0.808408 0.698163 0.000000
0.787467 0.736224 0.000000
0.769273 0.771582 0.000000
0.764489 0.799798 0.000000
0.768519 0.822212 0.000000
0.780451 0.838182 0.000000
0.799466 0.849379 0.000000
0.822623 0.857094 0.000000
0.863406 0.859174 0.000000
0.907430 0.877270 0.000000
1.000000 0.906271 0.000000
0.000000 0.011747 0.000000
0.610619 0.026908 0.000000
0.784169 0.090339 0.000000
0.849379 0.200534 0.000000
0.847716 0.338458 0.000000
0.855067 0.426711 0.000000
0.845219 0.525860 0.000000
0.810720 0.595820 0.000000
0.779839 0.648161 0.000000
0.747215 0.690649 0.000000
0.713893 0.723237 0.000000
0.691787 0.746602 0.000000
0.669934 0.762424 0.000000
0.655397 0.778094 0.000000
0.648485 0.795973 0.000000
0.647985 0.819299 0.000000
0.661542 0.847716 0.000000
0.706404 0.881197 0.000000
0.794202 0.900062 0.000000
0.894371 0.907268 0.000000
1.000000 0.922593 0.000000
0.000000 0.014020 0.000000
0.595906 0.032552 0.000000
0.763445 0.104871 0.000000
0.838182 0.219549 0.000000
0.819299 0.352015 0.000000
0.830944 0.450436 0.000000
0.808605 0.539030 0.000000
0.765548 0.597570 0.000000
0.726978 0.645471 0.000000
0.686373 0.680902 0.000000
0.641802 0.708059 0.000000
0.600501 0.731167 0.000000
0.561989 0.753132 0.000000
0.543112 0.779786 0.000000
0.536896 0.805662 0.000000
0.549564 0.830944 0.000000
0.573289 0.855067 0.000000
0.618253 0.881512 0.000000
0.696239 0.908905 0.000000
0.834991 0.922091 0.000000
1.000000 0.935982 0.000000
0.000000 0.016205 0.000000
0.575094 0.037477 0.000000
0.744307 0.114372 0.000000
0.822212 0.231481 0.000000
0.795973 0.351515 0.000000
0.805662 0.463104 0.000000
0.769164 0.537514 0.000000
0.724105 0.590390 0.000000
0.675874 0.632518 0.000000
0.630487 0.661298 0.000000
0.583791 0.681658 0.000000
0.543928 0.700818 0.000000
0.508026 0.716724 0.000000
0.481623 0.741259 0.000000
0.462486 0.769164 0.000000
0.460970 0.808605 0.000000
0.474140 0.845219 0.000000
0.530475 0.882112 0.000000
0.611479 0.911121 0.000000
0.782864 0.932639 0.000000
1.000000 0.946083 0.000000
0.000000 0.018394 0.000000
0.547932 0.041567 0.000000
0.724868 0.117523 0.000000
0.799798 0.235511 0.000000
0.778094 0.344603 0.000000
0.779786 0.456888 0.000000
0.741259 0.518377 0.000000
0.693355 0.569568 0.000000
0.642283 0.602638 0.000000
0.594757 0.626402 0.000000
0.546149 0.641814 0.000000
0.501025 0.654515 0.000000
0.460194 0.668019 0.000000
0.430432 0.693355 0.000000
0.409610 0.724105 0.000000
0.402430 0.765548 0.000000
0.404180 0.810720 0.000000
0.449000 0.868193 0.000000
0.528592 0.912155 0.000000
0.726043 0.938199 0.000000
1.000000 0.955384 0.000000
0.000000 0.020750 0.000000
0.514688 0.045171 0.000000
0.702650 0.115486 0.000000
0.771582 0.230727 0.000000
0.762424 0.330066 0.000000
0.753132 0.438011 0.000000
0.716724 0.491974 0.000000
0.668019 0.539806 0.000000
0.615223 0.565226 0.000000
0.567098 0.585643 0.000000
0.519717 0.595027 0.000000
0.476414 0.605026 0.000000
0.434774 0.615223 0.000000
0.397362 0.642283 0.000000
0.367482 0.675874 0.000000
0.354529 0.726978 0.000000
0.351839 0.779839 0.000000
0.390940 0.850035 0.000000
0.455369 0.908169 0.000000
0.667900 0.942011 0.000000
1.000000 0.962470 0.000000
0.000000 0.023602 0.000000
0.473655 0.048203 0.000000
0.674442 0.107331 0.000000
0.736224 0.212533 0.000000
0.746602 0.308213 0.000000
0.731167 0.399499 0.000000
0.700818 0.456072 0.000000
0.654515 0.498975 0.000000
0.605026 0.523586 0.000000
0.555699 0.540328 0.000000
0.506912 0.547595 0.000000
0.459672 0.555699 0.000000
0.414357 0.567098 0.000000
0.373598 0.594757 0.000000
0.338702 0.630487 0.000000
0.319098 0.686373 0.000000
0.309351 0.747215 0.000000
0.344645 0.832130 0.000000
0.403335 0.905526 0.000000
0.616807 0.945310 0.000000
1.000000 0.968177 0.000000
0.000000 0.027231 0.000000
0.429892 0.051420 0.000000
0.640258 0.099839 0.000000
0.698163 0.191592 0.000000
0.723237 0.286107 0.000000
0.708059 0.358198 0.000000
0.681658 0.416209 0.000000
0.641814 0.453851 0.000000
0.595027 0.480283 0.000000
0.547595 0.493088 0.000000
0.500000 0.500000 0.000000
0.452405 0.506912 0.000000
0.404973 0.519717 0.000000
0.358186 0.546149 0.000000
0.318342 0.583791 0.000000
0.291941 0.641802 0.000000
0.276763 0.713893 0.000000
0.301837 0.808408 0.000000
0.359742 0.900161 0.000000
0.570108 0.948580 0.000000
1.000000 0.972769 0.000000
0.000000 0.031823 0.000000
0.383193 0.054690 0.000000
0.596665 0.094474 0.000000
0.655355 0.167870 0.000000
0.690649 0.252785 0.000000
0.680902 0.313627 0.000000
0.661298 0.369513 0.000000
0.626402 0.405243 0.000000
0.585643 0.432902 0.000000
0.540328 0.444301 0.000000
0.493088 0.452405 0.000000
0.444301 0.459672 0.000000
0.394974 0.476414 0.000000
0.345485 0.501025 0.000000
0.299182 0.543928 0.000000
0.268833 0.600501 0.000000
0.253398 0.691787 0.000000
0.263776 0.787467 0.000000
0.325558 0.892669 0.000000
0.526345 0.951797 0.000000
1.000000 0.976398 0.000000
0.000000 0.037530 0.000000
0.332100 0.057989 0.000000
0.544631 0.091831 0.000000
0.609060 0.149965 0.000000
0.648161 0.220161 0.000000
0.645471 0.273022 0.000000
0.632518 0.324126 0.000000
0.602638 0.357717 0.000000
0.565226 0.384777 0.000000
0.523586 0.394974 0.000000
0.480283 0.404973 0.000000
0.432902 0.414357 0.000000
0.384777 0.434774 0.000000
0.331981 0.460194 0.000000
0.283276 0.508026 0.000000
0.246868 0.561989 0.000000
0.237576 0.669934 0.000000
0.228418 0.769273 0.000000
0.297350 0.884514 0.000000
0.485312 0.954829 0.000000
1.000000 0.979250 0.000000
0.000000 0.044616 0.000000
0.273957 0.061801 0.000000
0.471408 0.087845 0.000000
0.551000 0.131807 0.000000
0.595820 0.189280 0.000000
0.597570 0.234452 0.000000
0.590390 0.275895 0.000000
0.569568 0.306645 0.000000
0.539806 0.331981 0.000000
0.498975 0.345485 0.000000
0.453851 0.358186 0.000000
0.405243 0.373598 0.000000
0.357717 0.397362 0.000000
0.306645 0.430432 0.000000
0.258741 0.481623 0.000000
0.220214 0.543112 0.000000
0.221906 0.655397 0.000000
0.200202 0.764489 0.000000
0.275132 0.882477 0.000000
0.452068 0.958433 0.000000
1.000000 0.981606 0.000000
0.000000 0.053917 0.000000
0.217136 0.067361 0.000000
0.388521 0.088879 0.000000
0.469525 0.117888 0.000000
0.525860 0.154781 0.000000
0.539030 0.191395 0.000000
0.537514 0.230836 0.000000
0.518377 0.258741 0.000000
0.491974 0.283276 0.000000
0.456072 0.299182 0.000000
0.416209 0.318342 0.000000
0.369513 0.338702 0.000000
0.324126 0.367482 0.000000
0.275895 0.409610 0.000000
0.230836 0.462486 0.000000
0.194338 0.536896 0.000000
0.204027 0.648485 0.000000
0.177788 0.768519 0.000000
0.255693 0.885628 0.000000
0.424906 0.962523 0.000000
1.000000 0.983795 0.000000
0.000000 0.064018 0.000000
0.165009 0.077909 0.000000
0.303761 0.091095 0.000000
0.381747 0.118488 0.000000
0.426711 0.144933 0.000000
0.450436 0.169056 0.000000
0.463104 0.194338 0.000000
0.456888 0.220214 0.000000
0.438011 0.246868 0.000000
0.399499 0.268833 0.000000
0.358198 0.291941 0.000000
0.313627 0.319098 0.000000
0.273022 0.354529 0.000000
0.234452 0.402430 0.000000
0.191395 0.460970 0.000000
0.169056 0.549564 0.000000
0.180701 0.647985 0.000000
0.161818 0.780451 0.000000
0.236555 0.895129 0.000000
0.404094 0.967448 0.000000
1.000000 0.985980 0.000000
0.000000 0.077407 0.000000
0.105629 0.092732 0.000000
0.205798 0.099938 0.000000
0.293596 0.118803 0.000000
0.338458 0.152284 0.000000
0.352015 0.180701 0.000000
0.351515 0.204027 0.000000
0.344603 0.221906 0.000000
0.330066 0.237576 0.000000
0.308213 0.253398 0.000000
0.286107 0.276763 0.000000
0.252785 0.309351 0.000000
0.220161 0.351839 0.000000
0.189280 0.404180 0.000000
0.154781 0.474140 0.000000
0.144933 0.573289 0.000000
0.152284 0.661542 0.000000
0.150621 0.799466 0.000000
0.215831 0.909661 0.000000
0.389381 0.973092 0.000000
1.000000 0.988253 0.000000
0.000000 0.093729 0.000000
0.092570 0.122730 0.000000
0.136594 0.140826 0.000000
0.177377 0.142906 0.000000
0.200534 0.150621 0.000000
0.219549 0.161818 0.000000
0.231481 0.177788 0.000000
0.235511 0.200202 0.000000
0.230727 0.228418 0.000000
0.212533 0.263776 0.000000
0.191592 0.301837 0.000000
0.167870 0.344645 0.000000
0.149965 0.390940 0.000000
0.131807 0.449000 0.000000
0.117888 0.530475 0.000000
0.118488 0.618253 0.000000
0.118803 0.706404 0.000000
0.142906 0.822623 0.000000
0.189983 0.929794 0.000000
0.394673 0.980505 0.000000
1.000000 0.991048 0.000000
0.000000 0.112225 0.000000
0.029353 0.138424 0.000000
0.047525 0.162679 0.000000
0.070206 0.189983 0.000000
0.090339 0.215831 0.000000
0.104871 0.236555 0.000000
0.114372 0.255693 0.000000
0.117523 0.275132 0.000000
0.115486 0.297350 0.000000
0.107331 0.325558 0.000000
0.099839 0.359742 0.000000
0.094474 0.403335 0.000000
0.091831 0.455369 0.000000
0.087845 0.528592 0.000000
0.088879 0.611479 0.000000
0.091095 0.696239 0.000000
0.099938 0.794202 0.000000
0.140826 0.863406 0.000000
0.162679 0.952475 0.000000
0.415096 0.987965 0.000000
1.000000 0.994245 0.000000
0.000000 0.445797 0.000000
0.005416 0.437420 0.000000
0.012035 0.415096 0.000000
0.019495 0.394673 0.000000
0.026908 0.389381 0.000000
0.032552 0.404094 0.000000
0.037477 0.424906 0.000000
0.041567 0.452068 0.000000
0.045171 0.485312 0.000000
0.048203 0.526345 0.000000
0.051420 0.570108 0.000000
0.054690 0.616807 0.000000
0.057989 0.667900 0.000000
0.061801 0.726043 0.000000
0.067361 0.782864 0.000000
0.077909 0.834991 0.000000
0.092732 0.894371 0.000000
0.122730 0.907430 0.000000
0.138424 0.970647 0.000000
0.437420 0.994584 0.000000
1.000000 0.997694 0.000000
0.000000 1.000000 0.000000
0.002306 1.000000 0.000000
0.005755 1.000000 0.000000
0.008952 1.000000 0.000000
0.011747 1.000000 0.000000
0.014020 1.000000 0.000000
0.016205 1.000000 0.000000
0.018394 1.000000 0.000000
0.020750 1.000000 0.000000
0.023602 1.000000 0.000000
0.027231 1.000000 0.000000
0.031823 1.000000 0.000000
0.037530 1.000000 0.000000
0.044616 1.000000 0.000000
0.053917 1.000000 0.000000
0.064018 1.000000 0.000000
0.077407 1.000000 0.000000
0.093729 1.000000 0.000000
0.112225 1.000000 0.000000
0.445797 1.000000 0.000000
1.000000 1.000000 0.000000
0.000000 0.000000 0.082500
0.554203 0.000000 0.082500
0.887775 0.000000 0.082500
0.906271 0.000000 0.082500
0.922593 0.000000 0.082500
0.935982 0.000000 0.082500
0.946083 0.000000 0.082500
0.955384 0.000000 0.082500
0.962470 0.000000 0.082500
0.968177 0.000000 0.082500
0.972769 0.000000 0.082500
0.976398 0.000000 0.082500
0.979250 0.000000 0.082500
0.981606 0.000000 0.082500
0.983795 0.000000 0.082500
0.985980 0.000000 0.082500
0.988253 0.000000 0.082500
0.991048 0.000000 0.082500
0.994245 0.000000 0.082500
0.997694 0.000000 0.082500
1.000000 0.000000 0.082500
0.000000 0.002306 0.082500
0.562580 0.005416 0.082500
0.861576 0.029353 0.082500
0.877270 0.092570 0.082500
0.907268 0.105629 0.082500
0.922091 0.165009 0.082500
0.932639 0.217136 0.082500
0.938199 0.273957 0.082500
0.942011 0.332100 0.082500
0.945310 0.383193 0.082500
0.948580 0.429892 0.082500
0.951797 0.473655 0.082500
0.954829 0.514688 0.082500
0.958433 0.547932 0.082500
0.962523 0.575094 0.082500
0.967448 0.595906 0.082500
0.973092 0.610619 0.082500
0.980505 0.605327 0.082500
0.987965 0.584904 0.082500
0.994584 0.562580 0.082500
1.000000 0.554203 0.082500
0.000000 0.005755 0.082500
0.584904 0.012035 0.082500
0.837321 0.047525 0.082500
0.859174 0.136594 0.082500
0.900062 0.205798 0.082500
0.908905 0.303761 0.082500
0.911121 0.388521 0.082500
0.912155 0.471408 0.082500
0.908169 0.544631 0.082500
0.905526 0.596665 0.082500
0.900161 0.640258 0.082500
0.892669 0.674442 0.082500
0.884514 0.702650 0.082500
0.882477 0.724868 0.082500
0.885628 0.744307 0.082500
0.895129 0.763445 0.082500
0.909661 0.784169 0.082500
0.929794 0.810017 0.082500
0.952475 0.837321 0.082500
0.970647 0.861576 0.082500
1.000000 0.887775 0.082500
0.000000 0.008952 0.082500
0.605327 0.019495 0.082500
0.810017 0.070206 0.082500
0.857094 0.177377 0.082500
0.881197 0.293596 0.082500
0.881512 0.381747 0.082500
0.882112 0.469525 0.082500
0.868193 0.551000 0.082500
0.850035 0.609060 0.082500
0.832130 0.655355 0.082500
0.808408 0.698163 0.082500
0.787467 0.736224 0.082500
0.769273 0.771582 0.082500
0.764489 0.799798 0.082500
0.768519 0.822212 0.082500
0.780451 0.838182 0.082500
0.799466 0.849379 0.082500
0.822623 0.857094 0.082500
0.863406 0.859174 0.082500
0.907430 0.877270 0.082500
1.000000 0.906271 0.082500
0.000000 0.011747 0.082500
0.610619 0.026908 0.082500
0.784169 0.090339 0.082500
0.849379 0.200534 0.082500
0.847716 0.338458 0.082500
0.855067 0.426711 0.082500
0.845219 0.525860 0.082500
0.810720 0.595820 0.082500
0.779839 0.648161 0.082500
0.747215 0.690649 0.082500
0.713893 0.723237 0.082500
0.691787 0.746602 0.082500
0.669934 0.762424 0.082500
0.655397 0.778094 0.082500
0.648485 0.795973 0.082500
0.647985 0.819299 0.082500
0.661542 0.847716 0.082500
0.706404 0.881197 0.082500
0.794202 0.900062 0.082500
0.894371 0.907268 0.082500
1.000000 0.922593 0.082500
0.000000 0.014020 0.082500
0.595906 0.032552 0.082500
0.763445 0.104871 0.082500
0.838182 0.219549 0.082500
0.819299 0.352015 0.082500
0.830944 0.450436 0.082500
0.808605 0.539030 0.082500
0.765548 0.597570 0.082500
0.726978 0.645471 0.082500
0.686373 0.680902 0.082500
0.641802 0.708059 0.082500
0.600501 0.731167 0.082500
0.561989 0.753132 0.082500
0.543112 0.779786 0.082500
0.536896 0.805662 0.082500
0.549564 0.830944 0.082500
0.573289 0.855067 0.082500
0.618253 0.881512 0.082500
0.696239 0.908905 0.082500
0.834991 0.922091 0.082500
1.000000 0.935982 0.082500
0.000000 0.016205 0.082500
0.575094 0.037477 0.082500
0.744307 0.114372 0.082500
0.822212 0.231481 0.082500
0.795973 0.351515 0.082500
0.805662 0.463104 0.082500
0.769164 0.537514 0.082500
0.724105 0.590390 0.082500
0.675874 0.632518 0.082500
0.630487 0.661298 0.082500
0.583791 0.681658 0.082500
0.543928 0.700818 0.082500
0.508026 0.716724 0.082500
0.481623 0.741259 0.082500
0.462486 0.769164 0.082500
0.460970 0.808605 0.082500
0.474140 0.845219 0.082500
0.530475 0.882112 0.082500
0.611479 0.911121 0.082500
0.782864 0.932639 0.082500
1.000000 0.946083 0.082500
0.000000 0.018394 0.082500
0.547932 0.041567 0.082500
0.724868 0.117523 0.082500
0.799798 0.235511 0.082500
0.778094 0.344603 0.082500
0.779786 0.456888 0.082500
0.741259 0.518377 0.082500
0.693355 0.569568 0.082500
0.642283 0.602638 0.082500
0.594757 0.626402 0.082500
0.546149 0.641814 0.082500
0.501025 0.654515 0.082500
0.460194 0.668019 0.082500
0.430432 0.693355 0.082500
0.409610 0.724105 0.082500
0.402430 0.765548 0.082500
0.404180 0.810720 0.082500
0.449000 0.868193 0.082500
0.528592 0.912155 0.082500
0.726043 0.938199 0.082500
1.000000 0.955384 0.082500
0.000000 0.020750 0.082500
0.514688 0.045171 0.082500
0.702650 0.115486 0.082500
0.771582 0.230727 0.082500
0.762424 0.330066 0.082500
0.753132 0.438011 0.082500
0.716724 0.491974 0.082500
0.668019 0.539806 0.082500
0.615223 0.565226 0.082500
0.567098 0.585643 0.082500
0.519717 0.595027 0.082500
0.476414 0.605026 0.082500
0.434774 0.615223 0.082500
0.397362 0.642283 0.082500
0.367482 0.675874 0.082500
0.354529 0.726978 0.082500
0.351839 0.779839 0.082500
0.390940 0.850035 0.082500
0.455369 0.908169 0.082500
0.667900 0.942011 0.082500
1.000000 0.962470 0.082500
0.000000 0.023602 0.082500
0.473655 0.048203 0.082500
0.674442 0.107331 0.082500
0.736224 0.212533 0.082500
0.746602 0.308213 0.082500
0.731167 0.399499 0.082500
0.700818 0.456072 0.082500
0.654515 0.498975 0.082500
0.605026 0.523586 0.082500
0.555699 0.540328 0.082500
0.506912 0.547595 0.082500
0.459672 0.555699 0.082500
0.414357 0.567098 0.082500
0.373598 0.594757 0.082500
0.338702 0.630487 0.082500
0.319098 0.686373 0.082500
0.309351 0.747215 0.082500
0.344645 0.832130 0.082500
0.403335 0.905526 0.082500
0.616807 0.945310 0.082500
1.000000 0.968177 0.082500
0.000000 0.027231 0.082500
0.429892 0.051420 0.082500
0.640258 0.099839 0.082500
0.698163 0.191592 0.082500
0.723237 0.286107 0.082500
0.708059 0.358198 0.082500
0.681658 0.416209 0.082500
0.641814 0.453851 0.082500
0.595027 0.480283 0.082500
0.547595 0.493088 0.082500
0.500000 0.500000 0.082500
0.452405 0.506912 0.082500
0.404973 0.519717 0.082500
0.358186 0.546149 0.082500
0.318342 0.583791 0.082500
0.291941 0.641802 0.082500
0.276763 0.713893 0.082500
0.301837 0.808408 0.082500
0.359742 0.900161 0.082500
0.570108 0.948580 0.082500
1.000000 0.972769 0.082500
0.000000 0.031823 0.082500
0.383193 0.054690 0.082500
0.596665 0.094474 0.082500
0.655355 0.167870 0.082500
0.690649 0.252785 0.082500
0.680902 0.313627 0.082500
0.661298 0.369513 0.082500
0.626402 0.405243 0.082500
0.585643 0.432902 0.082500
0.540328 0.444301 0.082500
0.493088 0.452405 0.082500
0.444301 0.459672 0.082500
0.394974 0.476414 0.082500
0.345485 0.501025 0.082500
0.299182 0.543928 0.082500
0.268833 0.600501 0.082500
0.253398 0.691787 0.082500
0.263776 0.787467 0.082500
0.325558 0.892669 0.082500
0.526345 0.951797 0.082500
1.000000 0.976398 0.082500
0.000000 0.037530 0.082500
0.332100 0.057989 0.082500
0.544631 0.091831 0.082500
0.609060 0.149965 0.082500
0.648161 0.220161 0.082500
0.645471 0.273022 0.082500
0.632518 0.324126 0.082500
0.602638 0.357717 0.082500
0.565226 0.384777 0.082500
0.523586 0.394974 0.082500
0.480283 0.404973 0.082500
0.432902 0.414357 0.082500
0.384777 0.434774 0.082500
0.331981 0.460194 0.082500
0.283276 0.508026 0.082500
0.246868 0.561989 0.082500
0.237576 0.669934 0.082500
0.228418 0.769273 0.082500
0.297350 0.884514 0.082500
0.485312 0.954829 0.082500
1.000000 0.979250 0.082500
0.000000 0.044616 0.082500
0.273957 0.061801 0.082500
0.471408 0.087845 0.082500
0.551000 0.131807 0.082500
0.595820 0.189280 0.082500
0.597570 0.234452 0.082500
0.590390 0.275895 0.082500
0.569568 0.306645 0.082500
0.539806 0.331981 0.082500
0.498975 0.345485 0.082500
0.453851 0.358186 0.082500
0.405243 0.373598 0.082500
0.357717 0.397362 0.082500
0.306645 0.430432 0.082500
0.258741 0.481623 0.082500
0.220214 0.543112 0.082500
0.221906 0.655397 0.082500
0.200202 0.764489 0.082500
0.275132 0.882477 0.082500
0.452068 0.958433 0.082500
1.000000 0.981606 0.082500
0.000000 0.053917 0.082500
0.217136 0.067361 0.082500
0.388521 0.088879 0.082500
0.469525 0.117888 0.082500