# vtk DataFile Version 2.0
Mesh for Fierro
ASCII 
DATASET UNSTRUCTURED_GRID

POINTS 2205 float
0.000000 0.000000 0.000000
0.557201 0.000000 0.000000
0.847697 0.000000 0.000000
0.880939 0.000000 0.000000
0.907982 0.000000 0.000000
0.925613 0.000000 0.000000
0.938470 0.000000 0.000000
0.949476 0.000000 0.000000
0.957841 0.000000 0.000000
0.964136 0.000000 0.000000
0.969220 0.000000 0.000000
0.973363 0.000000 0.000000
0.976672 0.000000 0.000000
0.979412 0.000000 0.000000
0.981914 0.000000 0.000000
0.984455 0.000000 0.000000
0.987052 0.000000 0.000000
0.990030 0.000000 0.000000
0.993404 0.000000 0.000000
0.996828 0.000000 0.000000
1.000000 0.000000 0.000000
0.000000 0.003172 0.000000
0.556463 0.005895 0.000000
0.830128 0.029029 0.000000
0.865633 0.072422 0.000000
0.898978 0.095810 0.000000
0.915691 0.148716 0.000000
0.927472 0.194809 0.000000
0.934652 0.247193 0.000000
0.939680 0.301652 0.000000
0.943805 0.350740 0.000000
0.947722 0.395734 0.000000
0.951517 0.438083 0.000000
0.955002 0.478151 0.000000
0.958871 0.511094 0.000000
0.963041 0.538056 0.000000
0.967793 0.559926 0.000000
0.973295 0.574704 0.000000
0.980128 0.577227 0.000000
0.987520 0.564489 0.000000
0.994105 0.556463 0.000000
1.000000 0.557201 0.000000
0.000000 0.006596 0.000000
0.564489 0.012480 0.000000
0.807513 0.049100 0.000000
0.851367 0.118101 0.000000
0.890764 0.188133 0.000000
0.901930 0.272087 0.000000
0.907457 0.351765 0.000000
0.910338 0.433131 0.000000
0.908476 0.506309 0.000000
0.906977 0.560582 0.000000
0.903392 0.606401 0.000000
0.897617 0.643897 0.000000
0.890715 0.675699 0.000000
0.888121 0.701324 0.000000
0.889539 0.723764 0.000000
0.897339 0.743181 0.000000
0.910437 0.762574 0.000000
0.928720 0.785187 0.000000
0.950900 0.807513 0.000000
0.970971 0.830128 0.000000
1.000000 0.847697 0.000000
0.000000 0.009970 0.000000
0.577227 0.019872 0.000000
0.785187 0.071280 0.000000
0.845087 0.153609 0.000000
0.870401 0.262002 0.000000
0.877296 0.346186 0.000000
0.880258 0.434754 0.000000
0.870206 0.516115 0.000000
0.854627 0.579104 0.000000
0.840026 0.628031 0.000000
0.820576 0.672913 0.000000
0.803129 0.712255 0.000000
0.787616 0.748772 0.000000
0.783410 0.778825 0.000000
0.787517 0.803305 0.000000
0.800094 0.822101 0.000000
0.820306 0.835398 0.000000
0.846391 0.845087 0.000000
0.881899 0.851367 0.000000
0.927578 0.865633 0.000000
1.000000 0.880939 0.000000
0.000000 0.012948 0.000000
0.574704 0.026705 0.000000
0.762574 0.089563 0.000000
0.835398 0.179694 0.000000
0.840401 0.307151 0.000000
0.852911 0.394601 0.000000
0.844140 0.493596 0.000000
0.817616 0.565148 0.000000
0.789727 0.622771 0.000000
0.761859 0.668537 0.000000
0.731959 0.704869 0.000000
0.711053 0.731943 0.000000
0.690356 0.752033 0.000000
0.677747 0.770646 0.000000
0.673256 0.790041 0.000000
0.676099 0.813337 0.000000
0.692849 0.840401 0.000000
0.737998 0.870401 0.000000
0.811867 0.890764 0.000000
0.904190 0.898978 0.000000
1.000000 0.907982 0.000000
0.000000 0.015545 0.000000
0.559926 0.032207 0.000000
0.743181 0.102661 0.000000
0.822101 0.199906 0.000000
0.813337 0.323901 0.000000
0.828857 0.419120 0.000000
0.807987 0.508466 0.000000
0.773547 0.572055 0.000000
0.738341 0.624154 0.000000
0.702082 0.663631 0.000000
0.662025 0.695260 0.000000
0.624473 0.722515 0.000000
0.589643 0.747713 0.000000
0.572440 0.775712 0.000000
0.567859 0.802723 0.000000
0.580880 0.828857 0.000000
0.605399 0.852911 0.000000
0.653814 0.877296 0.000000
0.727913 0.901930 0.000000
0.851284 0.915691 0.000000
1.000000 0.925613 0.000000
0.000000 0.018086 0.000000
0.538056 0.036959 0.000000
0.723764 0.110461 0.000000
0.803305 0.212483 0.000000
0.790041 0.326744 0.000000
0.802723 0.432141 0.000000
0.770527 0.509107 0.000000
0.732316 0.568060 0.000000
0.688040 0.614294 0.000000
0.646693 0.648031 0.000000
0.603014 0.673337 0.000000
0.565265 0.696104 0.000000
0.531064 0.715439 0.000000
0.507030 0.741662 0.000000
0.490893 0.770527 0.000000
0.491534 0.807987 0.000000
0.506404 0.844140 0.000000
0.565246 0.880258 0.000000
0.648235 0.907457 0.000000
0.805191 0.927472 0.000000
1.000000 0.938470 0.000000
0.000000 0.020588 0.000000
0.511094 0.041129 0.000000
0.701324 0.111879 0.000000
0.778825 0.216590 0.000000
0.770646 0.322253 0.000000
0.775712 0.427560 0.000000
0.741662 0.492970 0.000000
0.699812 0.549307 0.000000
0.652409 0.587257 0.000000
0.608074 0.616457 0.000000
0.561871 0.636857 0.000000
0.518438 0.654323 0.000000
0.478844 0.671866 0.000000
0.450693 0.699812 0.000000
0.431940 0.732316 0.000000
0.427945 0.773547 0.000000
0.434852 0.817616 0.000000
0.483885 0.870206 0.000000
0.566869 0.910338 0.000000
0.752807 0.934652 0.000000
1.000000 0.949476 0.000000
0.000000 0.023328 0.000000
0.478151 0.044998 0.000000
0.675699 0.109285 0.000000
0.748772 0.212384 0.000000
0.752033 0.309644 0.000000
0.747713 0.410357 0.000000
0.715439 0.468936 0.000000
0.671866 0.521156 0.000000
0.622224 0.552547 0.000000
0.576474 0.578155 0.000000
0.530197 0.592770 0.000000
0.487986 0.607552 0.000000
0.447453 0.622224 0.000000
0.412743 0.652409 0.000000
0.385706 0.688040 0.000000
0.375846 0.738341 0.000000
0.377229 0.789727 0.000000
0.420896 0.854627 0.000000
0.493691 0.908476 0.000000
0.698348 0.939680 0.000000
1.000000 0.957841 0.000000
0.000000 0.026637 0.000000
0.438083 0.048483 0.000000
0.643897 0.102383 0.000000
0.712255 0.196871 0.000000
0.731943 0.288947 0.000000
0.722515 0.375527 0.000000
0.696104 0.434735 0.000000
0.654323 0.481562 0.000000
0.607552 0.512014 0.000000
0.560190 0.533997 0.000000
0.512371 0.546789 0.000000
0.466003 0.560190 0.000000
0.421845 0.576474 0.000000
0.383543 0.608074 0.000000
0.351969 0.646693 0.000000
0.336369 0.702082 0.000000
0.331463 0.761859 0.000000
0.371969 0.840026 0.000000
0.439418 0.906977 0.000000
0.649260 0.943805 0.000000
1.000000 0.964136 0.000000
0.000000 0.030780 0.000000
0.395734 0.052278 0.000000
0.606401 0.096608 0.000000
0.672913 0.179424 0.000000
0.704869 0.268041 0.000000
0.695260 0.337975 0.000000
0.673337 0.396986 0.000000
0.636857 0.438129 0.000000
0.592770 0.469803 0.000000
0.546789 0.487629 0.000000
0.500000 0.500000 0.000000
0.453211 0.512371 0.000000
0.407230 0.530197 0.000000
0.363143 0.561871 0.000000
0.326663 0.603014 0.000000
0.304740 0.662025 0.000000
0.295131 0.731959 0.000000
0.327087 0.820576 0.000000
0.393599 0.903392 0.000000
0.604266 0.947722 0.000000
1.000000 0.969220 0.000000
0.000000 0.035864 0.000000
0.350740 0.056195 0.000000
0.560582 0.093023 0.000000
0.628031 0.159974 0.000000
0.668537 0.238141 0.000000
0.663631 0.297918 0.000000
0.648031 0.353307 0.000000
0.616457 0.391926 0.000000
0.578155 0.423526 0.000000
0.533997 0.439810 0.000000
0.487629 0.453211 0.000000
0.439810 0.466003 0.000000
0.392448 0.487986 0.000000
0.345677 0.518438 0.000000
0.303896 0.565265 0.000000
0.277485 0.624473 0.000000
0.268057 0.711053 0.000000
0.287745 0.803129 0.000000
0.356103 0.897617 0.000000
0.561917 0.951517 0.000000
1.000000 0.973363 0.000000
0.000000 0.042159 0.000000
0.301652 0.060320 0.000000
0.506309 0.091524 0.000000
0.579104 0.145373 0.000000
0.622771 0.210273 0.000000
0.624154 0.261659 0.000000
0.614294 0.311960 0.000000
0.587257 0.347591 0.000000
0.552547 0.377776 0.000000
0.512014 0.392448 0.000000
0.469803 0.407230 0.000000
0.423526 0.421845 0.000000
0.377776 0.447453 0.000000
0.328134 0.478844 0.000000
0.284561 0.531064 0.000000
0.252287 0.589643 0.000000
0.247967 0.690356 0.000000
0.251228 0.787616 0.000000
0.324301 0.890715 0.000000
0.521849 0.955002 0.000000
1.000000 0.976672 0.000000
0.000000 0.050524 0.000000
0.247193 0.065348 0.000000
0.433131 0.089662 0.000000
0.516115 0.129794 0.000000
0.565148 0.182384 0.000000
0.572055 0.226453 0.000000
0.568060 0.267684 0.000000
0.549307 0.300188 0.000000
0.521156 0.328134 0.000000
0.481562 0.345677 0.000000
0.438129 0.363143 0.000000
0.391926 0.383543 0.000000
0.347591 0.412743 0.000000
0.300188 0.450693 0.000000
0.258338 0.507030 0.000000
0.224288 0.572440 0.000000
0.229354 0.677747 0.000000
0.221175 0.783410 0.000000
0.298676 0.888121 0.000000
0.488906 0.958871 0.000000
1.000000 0.979412 0.000000
0.000000 0.061530 0.000000
0.194809 0.072528 0.000000
0.351765 0.092543 0.000000
0.434754 0.119742 0.000000
0.493596 0.155860 0.000000
0.508466 0.192013 0.000000
0.509107 0.229473 0.000000
0.492970 0.258338 0.000000
0.468936 0.284561 0.000000
0.434735 0.303896 0.000000
0.396986 0.326663 0.000000
0.353307 0.351969 0.000000
0.311960 0.385706 0.000000
0.267684 0.431940 0.000000
0.229473 0.490893 0.000000
0.197277 0.567859 0.000000
0.209959 0.673256 0.000000
0.196695 0.787517 0.000000
0.276236 0.889539 0.000000
0.461944 0.963041 0.000000
1.000000 0.981914 0.000000
0.000000 0.074387 0.000000
0.148716 0.084309 0.000000
0.272087 0.098070 0.000000
0.346186 0.122704 0.000000
0.394601 0.147089 0.000000
0.419120 0.171143 0.000000
0.432141 0.197277 0.000000
0.427560 0.224288 0.000000
0.410357 0.252287 0.000000
0.375527 0.277485 0.000000
0.337975 0.304740 0.000000
0.297918 0.336369 0.000000
0.261659 0.375846 0.000000
0.226453 0.427945 0.000000
0.192013 0.491534 0.000000
0.171143 0.580880 0.000000
0.186663 0.676099 0.000000
0.177899 0.800094 0.000000
0.256819 0.897339 0.000000
0.440074 0.967793 0.000000
1.000000 0.984455 0.000000
0.000000 0.092018 0.000000
0.095810 0.101022 0.000000
0.188133 0.109236 0.000000
0.262002 0.129599 0.000000
0.307151 0.159599 0.000000
0.323901 0.186663 0.000000
0.326744 0.209959 0.000000
0.322253 0.229354 0.000000
0.309644 0.247967 0.000000
0.288947 0.268057 0.000000
0.268041 0.295131 0.000000
0.238141 0.331463 0.000000
0.210273 0.377229 0.000000
0.182384 0.434852 0.000000
0.155860 0.506404 0.000000
0.147089 0.605399 0.000000
0.159599 0.692849 0.000000
0.164602 0.820306 0.000000
0.237426 0.910437 0.000000
0.425296 0.973295 0.000000
1.000000 0.987052 0.000000
0.000000 0.119061 0.000000
0.072422 0.134367 0.000000
0.118101 0.148633 0.000000
0.153609 0.154913 0.000000
0.179694 0.164602 0.000000
0.199906 0.177899 0.000000
0.212483 0.196695 0.000000
0.216590 0.221175 0.000000
0.212384 0.251228 0.000000
[...]
POINT_DATA 2205 
VECTORS pos float 
0.000000 0.000000 0.000000
0.557201 0.000000 0.000000
0.847697 0.000000 0.000000
0.880939 0.000000 0.000000
0.907982 0.000000 0.000000
0.925613 0.000000 0.000000
0.938470 0.000000 0.000000
0.949476 0.000000 0.000000
0.957841 0.000000 0.000000
0.964136 0.000000 0.000000
0.969220 0.000000 0.000000
0.973363 0.000000 0.000000
0.976672 0.000000 0.000000
0.979412 0.000000 0.000000
0.981914 0.000000 0.000000
0.984455 0.000000 0.000000
0.987052 0.000000 0.000000
0.990030 0.000000 0.000000
0.993404 0.000000 0.000000
0.996828 0.000000 0.000000
1.000000 0.000000 0.000000
0.000000 0.003172 0.000000
0.556463 0.005895 0.000000
0.830128 0.029029 0.000000
0.865633 0.072422 0.000000
0.898978 0.095810 0.000000
0.915691 0.148716 0.000000
0.927472 0.194809 0.000000
0.934652 0.247193 0.000000
0.939680 0.301652 0.000000
0.943805 0.350740 0.000000
0.947722 0.395734 0.000000
0.951517 0.438083 0.000000
0.955002 0.478151 0.000000
0.958871 0.511094 0.000000
0.963041 0.538056 0.000000
0.967793 0.559926 0.000000
0.973295 0.574704 0.000000
0.980128 0.577227 0.000000
0.987520 0.564489 0.000000
0.994105 0.556463 0.000000
1.000000 0.557201 0.000000
0.000000 0.006596 0.000000
0.564489 0.012480 0.000000
0.807513 0.049100 0.000000
0.851367 0.118101 0.000000
0.890764 0.188133 0.000000
0.901930 0.272087 0.000000
0.907457 0.351765 0.000000
0.910338 0.433131 0.000000
0.908476 0.506309 0.000000
0.906977 0.560582 0.000000
0.903392 0.606401 0.000000
0.897617 0.643897 0.000000
0.890715 0.675699 0.000000
0.888121 0.701324 0.000000
0.889539 0.723764 0.000000
0.897339 0.743181 0.000000
0.910437 0.762574 0.000000
0.928720 0.785187 0.000000
0.950900 0.807513 0.000000
0.970971 0.830128 0.000000
1.000000 0.847697 0.000000
0.000000 0.009970 0.000000
0.577227 0.019872 0.000000
0.785187 0.071280 0.000000
0.845087 0.153609 0.000000
0.870401 0.262002 0.000000
0.877296 0.346186 0.000000
0.880258 0.434754 0.000000
0.870206 0.516115 0.000000
0.854627 0.579104 0.000000
0.840026 0.628031 0.000000
0.820576 0.672913 0.000000
0.803129 0.712255 0.000000
0.787616 0.748772 0.000000
0.783410 0.778825 0.000000
0.787517 0.803305 0.000000
0.800094 0.822101 0.000000
0.820306 0.835398 0.000000
0.846391 0.845087 0.000000
0.881899 0.851367 0.000000
0.927578 0.865633 0.000000
1.000000 0.880939 0.000000
0.000000 0.012948 0.000000
0.574704 0.026705 0.000000
0.762574 0.089563 0.000000
0.835398 0.179694 0.000000
0.840401 0.307151 0.000000
0.852911 0.394601 0.000000
0.844140 0.493596 0.000000
0.817616 0.565148 0.000000
0.789727 0.622771 0.000000
0.761859 0.668537 0.000000
0.731959 0.704869 0.000000
0.711053 0.731943 0.000000
0.690356 0.752033 0.000000
0.677747 0.770646 0.000000
0.673256 0.790041 0.000000
0.676099 0.813337 0.000000
0.692849 0.840401 0.000000
0.737998 0.870401 0.000000
0.811867 0.890764 0.000000
0.904190 0.898978 0.000000
1.000000 0.907982 0.000000
0.000000 0.015545 0.000000
0.559926 0.032207 0.000000
0.743181 0.102661 0.000000
0.822101 0.199906 0.000000
0.813337 0.323901 0.000000
0.828857 0.419120 0.000000
0.807987 0.508466 0.000000
0.773547 0.572055 0.000000
0.738341 0.624154 0.000000
0.702082 0.663631 0.000000
0.662025 0.695260 0.000000
0.624473 0.722515 0.000000
0.589643 0.747713 0.000000
0.572440 0.775712 0.000000
0.567859 0.802723 0.000000
0.580880 0.828857 0.000000
0.605399 0.852911 0.000000
0.653814 0.877296 0.000000
0.727913 0.901930 0.000000
0.851284 0.915691 0.000000
1.000000 0.925613 0.000000
0.000000 0.018086 0.000000
0.538056 0.036959 0.000000
0.723764 0.110461 0.000000
0.803305 0.212483 0.000000
0.790041 0.326744 0.000000
0.802723 0.432141 0.000000
0.770527 0.509107 0.000000
0.732316 0.568060 0.000000
0.688040 0.614294 0.000000
0.646693 0.648031 0.000000
0.603014 0.673337 0.000000
0.565265 0.696104 0.000000
0.531064 0.715439 0.000000
0.507030 0.741662 0.000000
0.490893 0.770527 0.000000
0.491534 0.807987 0.000000
0.506404 0.844140 0.000000
0.565246 0.880258 0.000000
0.648235 0.907457 0.000000
0.805191 0.927472 0.000000
1.000000 0.938470 0.000000
0.000000 0.020588 0.000000
0.511094 0.041129 0.000000
0.701324 0.111879 0.000000
0.778825 0.216590 0.000000
0.770646 0.322253 0.000000
0.775712 0.427560 0.000000
0.741662 0.492970 0.000000
0.699812 0.549307 0.000000
0.652409 0.587257 0.000000
0.608074 0.616457 0.000000
0.561871 0.636857 0.000000
0.518438 0.654323 0.000000
0.478844 0.671866 0.000000
0.450693 0.699812 0.000000
0.431940 0.732316 0.000000
0.427945 0.773547 0.000000
0.434852 0.817616 0.000000
0.483885 0.870206 0.000000
0.566869 0.910338 0.000000
0.752807 0.934652 0.000000
1.000000 0.949476 0.000000
0.000000 0.023328 0.000000
0.478151 0.044998 0.000000
0.675699 0.109285 0.000000
0.748772 0.212384 0.000000
0.752033 0.309644 0.000000
0.747713 0.410357 0.000000
0.715439 0.468936 0.000000
0.671866 0.521156 0.000000
0.622224 0.552547 0.000000
0.576474 0.578155 0.000000
0.530197 0.592770 0.000000
0.487986 0.607552 0.000000
0.447453 0.622224 0.000000
0.412743 0.652409 0.000000
0.385706 0.688040 0.000000
0.375846 0.738341 0.000000
0.377229 0.789727 0.000000
0.420896 0.854627 0.000000
0.493691 0.908476 0.000000
0.698348 0.939680 0.000000
1.000000 0.957841 0.000000
0.000000 0.026637 0.000000
0.438083 0.048483 0.000000
0.643897 0.102383 0.000000
0.712255 0.196871 0.000000
0.731943 0.288947 0.000000
0.722515 0.375527 0.000000
0.696104 0.434735 0.000000
0.654323 0.481562 0.000000
0.607552 0.512014 0.000000
0.560190 0.533997 0.000000
0.512371 0.546789 0.000000
0.466003 0.560190 0.000000
0.421845 0.576474 0.000000
0.383543 0.608074 0.000000
0.351969 0.646693 0.000000
0.336369 0.702082 0.000000
0.331463 0.761859 0.000000
0.371969 0.840026 0.000000
0.439418 0.906977 0.000000
0.649260 0.943805 0.000000
1.000000 0.964136 0.000000
0.000000 0.030780 0.000000
0.395734 0.052278 0.000000
0.606401 0.096608 0.000000
0.672913 0.179424 0.000000
0.704869 0.268041 0.000000
0.695260 0.337975 0.000000
0.673337 0.396986 0.000000
0.636857 0.438129 0.000000
0.592770 0.469803 0.000000
0.546789 0.487629 0.000000
0.500000 0.500000 0.000000
0.453211 0.512371 0.000000
0.407230 0.530197 0.000000
0.363143 0.561871 0.000000
0.326663 0.603014 0.000000
0.304740 0.662025 0.000000
0.295131 0.731959 0.000000
0.327087 0.820576 0.000000
0.393599 0.903392 0.000000
0.604266 0.947722 0.000000
1.000000 0.969220 0.000000
0.000000 0.035864 0.000000
0.350740 0.056195 0.000000
0.560582 0.093023 0.000000
0.628031 0.159974 0.000000
0.668537 0.238141 0.000000
0.663631 0.297918 0.000000
0.648031 0.353307 0.000000
0.616457 0.391926 0.000000
0.578155 0.423526 0.000000
0.533997 0.439810 0.000000
0.487629 0.453211 0.000000
0.439810 0.466003 0.000000
0.392448 0.487986 0.000000
0.345677 0.518438 0.000000
0.303896 0.565265 0.000000
0.277485 0.624473 0.000000
0.268057 0.711053 0.000000
0.287745 0.803129 0.000000
0.356103 0.897617 0.000000
0.561917 0.951517 0.000000
1.000000 0.973363 0.000000
0.000000 0.042159 0.000000
0.301652 0.060320 0.000000
0.506309 0.091524 0.000000
0.579104 0.145373 0.000000
0.622771 0.210273 0.000000
0.624154 0.261659 0.000000
0.614294 0.311960 0.000000
0.587257 0.347591 0.000000
0.552547 0.377776 0.000000
0.512014 0.392448 0.000000
0.469803 0.407230 0.000000
0.423526 0.421845 0.000000
0.377776 0.447453 0.000000
0.328134 0.478844 0.000000
0.284561 0.531064 0.000000
0.252287 0.589643 0.000000
0.247967 0.690356 0.000000
0.251228 0.787616 0.000000
0.324301 0.890715 0.000000
0.521849 0.955002 0.000000
1.000000 0.976672 0.000000
0.000000 0.050524 0.000000
0.247193 0.065348 0.000000
0.433131 0.089662 0.000000
0.516115 0.129794 0.000000
0.565148 0.182384 0.000000
0.572055 0.226453 0.000000
0.568060 0.267684 0.000000
0.549307 0.300188 0.000000
0.521156 0.328134 0.000000
0.481562 0.345677 0.000000
0.438129 0.363143 0.000000
0.391926 0.383543 0.000000
0.347591 0.412743 0.000000
0.300188 0.450693 0.000000
0.258338 0.507030 0.000000
0.224288 0.572440 0.000000
0.229354 0.677747 0.000000
0.221175 0.783410 0.000000
0.298676 0.888121 0.000000
0.488906 0.958871 0.000000
1.000000 0.979412 0.000000
0.000000 0.061530 0.000000
0.194809 0.072528 0.000000
0.351765 0.092543 0.000000
0.434754 0.119742 0.000000
0.493596 0.155860 0.000000
0.508466 0.192013 0.000000
0.509107 0.229473 0.000000
0.492970 0.258338 0.000000
0.468936 0.284561 0.000000
0.434735 0.303896 0.000000
0.396986 0.326663 0.000000
0.353307 0.351969 0.000000
0.311960 0.385706 0.000000
0.267684 0.431940 0.000000
0.229473 0.490893 0.000000
0.197277 0.567859 0.000000
0.209959 0.673256 0.000000
0.196695 0.787517 0.000000
0.276236 0.889539 0.000000
0.461944 0.963041 0.000000
1.000000 0.981914 0.000000
0.000000 0.074387 0.000000
0.148716 0.084309 0.000000
0.272087 0.098070 0.000000
0.346186 0.122704 0.000000
0.394601 0.147089 0.000000
0.419120 0.171143 0.000000
0.432141 0.197277 0.000000
0.427560 0.224288 0.000000
0.410357 0.252287 0.000000
0.375527 0.277485 0.000000
0.337975 0.304740 0.000000
0.297918 0.336369 0.000000
0.261659 0.375846 0.000000
0.226453 0.427945 0.000000
0.192013 0.491534 0.000000
0.171143 0.580880 0.000000
0.186663 0.676099 0.000000
0.177899 0.800094 0.000000
0.256819 0.897339 0.000000
0.440074 0.967793 0.000000
1.000000 0.984455 0.000000
0.000000 0.092018 0.000000
0.095810 0.101022 0.000000
0.188133 0.109236 0.000000
0.262002 0.129599 0.000000
0.307151 0.159599 0.000000
0.323901 0.186663 0.000000
0.326744 0.209959 0.000000
0.322253 0.229354 0.000000
0.309644 0.247967 0.000000
0.288947 0.268057 0.000000
0.268041 0.295131 0.000000
0.238141 0.331463 0.000000
0.210273 0.377229 0.000000
0.182384 0.434852 0.000000
0.155860 0.506404 0.000000
0.147089 0.605399 0.000000
0.159599 0.692849 0.000000
0.164602 0.820306 0.000000
0.237426 0.910437 0.000000
0.425296 0.973295 0.000000
1.000000 0.987052 0.000000
0.000000 0.119061 0.000000
0.072422 0.134367 0.000000
0.118101 0.148633 0.000000
0.153609 0.154913 0.000000
0.179694 0.164602 0.000000
0.199906 0.177899 0.000000
0.212483 0.196695 0.000000
0.216590 0.221175 0.000000
0.212384 0.251228 0.000000
0.196871 0.287745 0.000000
0.179424 0.327087 0.000000
0.159974 0.371969 0.000000
0.145373 0.420896 0.000000
0.129794 0.483885 0.000000
0.119742 0.565246 0.000000
0.122704 0.653814 0.000000
0.129599 0.737998 0.000000
0.154913 0.846391 0.000000
0.214813 0.928720 0.000000
0.422773 0.980128 0.000000
1.000000 0.990030 0.000000
0.000000 0.152303 0.000000
0.029029 0.169872 0.000000
0.049100 0.192487 0.000000
0.071280 0.214813 0.000000
0.089563 0.237426 0.000000
0.102661 0.256819 0.000000
0.110461 0.276236 0.000000
0.111879 0.298676 0.000000
0.109285 0.324301 0.000000
0.102383 0.356103 0.000000
0.096608 0.393599 0.000000
0.093023 0.439418 0.000000
0.091524 0.493691 0.000000
0.089662 0.566869 0.000000
0.092543 0.648235 0.000000
0.098070 0.727913 0.000000
0.109236 0.811867 0.000000
0.148633 0.881899 0.000000
0.192487 0.950900 0.000000
0.435511 0.987520 0.000000
1.000000 0.993404 0.000000
0.000000 0.442799 0.000000
0.005895 0.443537 0.000000
0.012480 0.435511 0.000000
0.019872 0.422773 0.000000
0.026705 0.425296 0.000000
0.032207 0.440074 0.000000
0.036959 0.461944 0.000000
0.041129 0.488906 0.000000
0.044998 0.521849 0.000000
0.048483 0.561917 0.000000
0.052278 0.604266 0.000000
0.056195 0.649260 0.000000
0.060320 0.698348 0.000000
0.065348 0.752807 0.000000
0.072528 0.805191 0.000000
0.084309 0.851284 0.000000
0.101022 0.904190 0.000000
0.134367 0.927578 0.000000
0.169872 0.970971 0.000000
0.443537 0.994105 0.000000
1.000000 0.996828 0.000000
0.000000 1.000000 0.000000
0.003172 1.000000 0.000000
0.006596 1.000000 0.000000
0.009970 1.000000 0.000000
0.012948 1.000000 0.000000
0.015545 1.000000 0.000000
0.018086 1.000000 0.000000
0.020588 1.000000 0.000000
0.023328 1.000000 0.000000
0.026637 1.000000 0.000000
0.030780 1.000000 0.000000
0.035864 1.000000 0.000000
0.042159 1.000000 0.000000
0.050524 1.000000 0.000000
0.061530 1.000000 0.000000
0.074387 1.000000 0.000000
0.092018 1.000000 0.000000
0.119061 1.000000 0.000000
0.152303 1.000000 0.000000
0.442799 1.000000 0.000000
1.000000 1.000000 0.000000
0.000000 0.000000 0.082500
0.557201 0.000000 0.082500
0.847697 0.000000 0.082500
0.880939 0.000000 0.082500
0.907982 0.000000 0.082500
0.925613 0.000000 0.082500
0.938470 0.000000 0.082500
0.949476 0.000000 0.082500
0.957841 0.000000 0.082500
0.964136 0.000000 0.082500
0.969220 0.000000 0.082500
0.973363 0.000000 0.082500
0.976672 0.000000 0.082500
0.979412 0.000000 0.082500
0.981914 0.000000 0.082500
0.984455 0.000000 0.082500
0.987052 0.000000 0.082500
0.990030 0.000000 0.082500
0.993404 0.000000 0.082500
0.996828 0.000000 0.082500
1.000000 0.000000 0.082500
0.000000 0.003172 0.082500
0.556463 0.005895 0.082500
0.830128 0.029029 0.082500
0.865633 0.072422 0.082500
0.898978 0.095810 0.082500
0.915691 0.148716 0.082500
0.927472 0.194809 0.082500
0.934652 0.247193 0.082500
0.939680 0.301652 0.082500
0.943805 0.350740 0.082500
0.947722 0.395734 0.082500
0.951517 0.438083 0.082500
0.955002 0.478151 0.082500
0.958871 0.511094 0.082500
0.963041 0.538056 0.082500
0.967793 0.559926 0.082500
0.973295 0.574704 0.082500
0.980128 0.577227 0.082500
0.987520 0.564489 0.082500
0.994105 0.556463 0.082500
1.000000 0.557201 0.082500
0.000000 0.006596 0.082500
0.564489 0.012480 0.082500
0.807513 0.049100 0.082500
0.851367 0.118101 0.082500
0.890764 0.188133 0.082500
0.901930 0.272087 0.082500
0.907457 0.351765 0.082500
0.910338 0.433131 0.082500
0.908476 0.506309 0.082500
0.906977 0.560582 0.082500
0.903392 0.606401 0.082500
0.897617 0.643897 0.082500
0.890715 0.675699 0.082500
0.888121 0.701324 0.082500
0.889539 0.723764 0.082500
0.897339 0.743181 0.082500
0.910437 0.762574 0.082500
0.928720 0.785187 0.082500
0.950900 0.807513 0.082500
0.970971 0.830128 0.082500
1.000000 0.847697 0.082500
0.000000 0.009970 0.082500
0.577227 0.019872 0.082500
0.785187 0.071280 0.082500
0.845087 0.153609 0.082500
0.870401 0.262002 0.082500
0.877296 0.346186 0.082500
0.880258 0.434754 0.082500
0.870206 0.516115 0.082500
0.854627 0.579104 0.082500
0.840026 0.628031 0.082500
0.820576 0.672913 0.082500
0.803129 0.712255 0.082500
0.787616 0.748772 0.082500
0.783410 0.778825 0.082500
0.787517 0.803305 0.082500
0.800094 0.822101 0.082500
0.820306 0.835398 0.082500
0.846391 0.845087 0.082500
0.881899 0.851367 0.082500
0.927578 0.865633 0.082500
1.000000 0.880939 0.082500
0.000000 0.012948 0.082500
0.574704 0.026705 0.082500
0.762574 0.089563 0.082500
0.835398 0.179694 0.082500
0.840401 0.307151 0.082500
0.852911 0.394601 0.082500
0.844140 0.493596 0.082500
0.817616 0.565148 0.082500
0.789727 0.622771 0.082500
0.761859 0.668537 0.082500
0.731959 0.704869 0.082500
0.711053 0.731943 0.082500
0.690356 0.752033 0.082500
0.677747 0.770646 0.082500
0.673256 0.790041 0.082500
0.676099 0.813337 0.082500
0.692849 0.840401 0.082500
0.737998 0.870401 0.082500
0.811867 0.890764 0.082500
0.904190 0.898978 0.082500
1.000000 0.907982 0.082500
0.000000 0.015545 0.082500
0.559926 0.032207 0.082500
0.743181 0.102661 0.082500
0.822101 0.199906 0.082500
0.813337 0.323901 0.082500
0.828857 0.419120 0.082500
0.807987 0.508466 0.082500
0.773547 0.572055 0.082500
0.738341 0.624154 0.082500
0.702082 0.663631 0.082500
0.662025 0.695260 0.082500
0.624473 0.722515 0.082500
0.589643 0.747713 0.082500
0.572440 0.775712 0.082500
0.567859 0.802723 0.082500
0.580880 0.828857 0.082500
0.605399 0.852911 0.082500
0.653814 0.877296 0.082500
0.727913 0.901930 0.082500
0.851284 0.915691 0.082500
1.000000 0.925613 0.082500
0.000000 0.018086 0.082500
0.538056 0.036959 0.082500
0.723764 0.110461 0.082500
0.803305 0.212483 0.082500
0.790041 0.326744 0.082500
0.802723 0.432141 0.082500
0.770527 0.509107 0.082500
0.732316 0.568060 0.082500
0.688040 0.614294 0.082500
0.646693 0.648031 0.082500
0.603014 0.673337 0.082500
0.565265 0.696104 0.082500
0.531064 0.715439 0.082500
0.507030 0.741662 0.082500
0.490893 0.770527 0.082500
0.491534 0.807987 0.082500
0.506404 0.844140 0.082500
0.565246 0.880258 0.082500
0.648235 0.907457 0.082500
0.805191 0.927472 0.082500
1.000000 0.938470 0.082500
0.000000 0.020588 0.082500
0.511094 0.041129 0.082500
0.701324 0.111879 0.082500
0.778825 0.216590 0.082500
0.770646 0.322253 0.082500
0.775712 0.427560 0.082500
0.741662 0.492970 0.082500
0.699812 0.549307 0.082500
0.652409 0.587257 0.082500
0.608074 0.616457 0.082500
0.561871 0.636857 0.082500
0.518438 0.654323 0.082500
0.478844 0.671866 0.082500
0.450693 0.699812 0.082500
0.431940 0.732316 0.082500
0.427945 0.773547 0.082500
0.434852 0.817616 0.082500
0.483885 0.870206 0.082500
0.566869 0.910338 0.082500
0.752807 0.934652 0.082500
1.000000 0.949476 0.082500
0.000000 0.023328 0.082500
0.478151 0.044998 0.082500
0.675699 0.109285 0.082500
0.748772 0.212384 0.082500
0.752033 0.309644 0.082500
0.747713 0.410357 0.082500
0.715439 0.468936 0.082500
0.671866 0.521156 0.082500
0.622224 0.552547 0.082500
0.576474 0.578155 0.082500
0.530197 0.592770 0.082500
0.487986 0.607552 0.082500
0.447453 0.622224 0.082500
0.412743 0.652409 0.082500
0.385706 0.688040 0.082500
0.375846 0.738341 0.082500
0.377229 0.789727 0.082500
0.420896 0.854627 0.082500
0.493691 0.908476 0.082500
0.698348 0.939680 0.082500
1.000000 0.957841 0.082500
0.000000 0.026637 0.082500
0.438083 0.048483 0.082500
0.643897 0.102383 0.082500
0.712255 0.196871 0.082500
0.731943 0.288947 0.082500
0.722515 0.375527 0.082500
0.696104 0.434735 0.082500
0.654323 0.481562 0.082500
0.607552 0.512014 0.082500
0.560190 0.533997 0.082500
0.512371 0.546789 0.082500
0.466003 0.560190 0.082500
0.421845 0.576474 0.082500
0.383543 0.608074 0.082500
0.351969 0.646693 0.082500
0.336369 0.702082 0.082500
0.331463 0.761859 0.082500
0.371969 0.840026 0.082500
0.439418 0.906977 0.082500
0.649260 0.943805 0.082500
1.000000 0.964136 0.082500
0.000000 0.030780 0.082500
0.395734 0.052278 0.082500
0.606401 0.096608 0.082500
0.672913 0.179424 0.082500
0.704869 0.268041 0.082500
0.695260 0.337975 0.082500
0.673337 0.396986 0.082500
0.636857 0.438129 0.082500
0.592770 0.469803 0.082500
0.546789 0.487629 0.082500
0.500000 0.500000 0.082500
0.453211 0.512371 0.082500
0.407230 0.530197 0.082500
0.363143 0.561871 0.082500
0.326663 0.603014 0.082500
0.304740 0.662025 0.082500
0.295131 0.731959 0.082500
0.327087 0.820576 0.082500
0.393599 0.903392 0.082500
0.604266 0.947722 0.082500
1.000000 0.969220 0.082500
0.000000 0.035864 0.082500
0.350740 0.056195 0.082500
0.560582 0.093023 0.082500
0.628031 0.159974 0.082500
0.668537 0.238141 0.082500
0.663631 0.297918 0.082500
0.648031 0.353307 0.082500
0.616457 0.391926 0.082500
0.578155 0.423526 0.082500
0.533997 0.439810 0.082500
0.487629 0.453211 0.082500
0.439810 0.466003 0.082500
0.392448 0.487986 0.082500
0.345677 0.518438 0.082500
0.303896 0.565265 0.082500
0.277485 0.624473 0.082500
0.268057 0.711053 0.082500
0.287745 0.803129 0.082500
0.356103 0.897617 0.082500
0.561917 0.951517 0.082500
1.000000 0.973363 0.082500
0.000000 0.042159 0.082500
0.301652 0.060320 0.082500
0.506309 0.091524 0.082500
0.579104 0.145373 0.082500
0.622771 0.210273 0.082500
0.624154 0.261659 0.082500
0.614294 0.311960 0.082500
0.587257 0.347591 0.082500
0.552547 0.377776 0.082500
0.512014 0.392448 0.082500
0.469803 0.407230 0.082500
0.423526 0.421845 0.082500
0.377776 0.447453 0.082500
0.328134 0.478844 0.082500
0.284561 0.531064 0.082500
0.252287 0.589643 0.082500
0.247967 0.690356 0.082500
0.251228 0.787616 0.082500
0.324301 0.890715 0.082500
0.521849 0.955002 0.082500
1.000000 0.976672 0.082500
0.000000 0.050524 0.082500
0.247193 0.065348 0.082500
0.433131 0.089662 0.082500
0.516115 0.129794 0.082500
0.565148 0.182384 0.082500
0.572055 0.226453 0.082500
0.568060 0.267684 0.082500
0.549307 0.300188 0.082500
0.521156 0.328134 0.082500
0.481562 0.345677 0.082500
0.438129 0.363143 0.082500
0.391926 0.383543 0.082500
0.347591 0.412743 0.082500
0.300188 0.450693 0.082500
0.258338 0.507030 0.082500
0.224288 0.572440 0.082500
0.229354 0.677747 0.082500
0.221175 0.783410 0.082500
0.298676 0.888121 0.082500
0.488906 0.958871 0.082500
1.000000 0.979412 0.082500
0.000000 0.061530 0.082500
0.194809 0.072528 0.082500
0.351765 0.092543 0.082500
0.434754 0.119742 0.082500