# vtk DataFile Version 2.0
Mesh for Fierro
ASCII 
DATASET UNSTRUCTURED_GRID

POINTS 2205 float
0.000000 0.000000 0.000000
0.557455 0.000000 0.000000
0.859415 0.000000 0.000000
0.887400 0.000000 0.000000
0.911363 0.000000 0.000000
0.928444 0.000000 0.000000
0.941044 0.000000 0.000000
0.951461 0.000000 0.000000
0.959038 0.000000 0.000000
0.965185 0.000000 0.000000
0.970264 0.000000 0.000000
0.974362 0.000000 0.000000
0.977635 0.000000 0.000000
0.980290 0.000000 0.000000
0.982672 0.000000 0.000000
0.985070 0.000000 0.000000
0.987491 0.000000 0.000000
0.990360 0.000000 0.000000
0.993638 0.000000 0.000000
0.997031 0.000000 0.000000
1.000000 0.000000 0.000000
0.000000 0.002969 0.000000
0.558146 0.005756 0.000000
0.838435 0.029144 0.000000
0.869082 0.077380 0.000000
0.901288 0.097683 0.000000
0.917637 0.152728 0.000000
0.929180 0.200255 0.000000
0.935843 0.253756 0.000000
0.940412 0.309094 0.000000
0.944293 0.358712 0.000000
0.948024 0.404152 0.000000
0.951659 0.446871 0.000000
0.955014 0.487165 0.000000
0.958791 0.520269 0.000000
0.962898 0.547256 0.000000
0.967660 0.569013 0.000000
0.973177 0.583734 0.000000
0.980139 0.584445 0.000000
0.987595 0.569630 0.000000
0.994244 0.558146 0.000000
1.000000 0.557455 0.000000
0.000000 0.006362 0.000000
0.569630 0.012405 0.000000
0.814792 0.048653 0.000000
0.853718 0.122529 0.000000
0.893677 0.192635 0.000000
0.903793 0.279849 0.000000
0.908526 0.360675 0.000000
0.910869 0.442597 0.000000
0.908477 0.515892 0.000000
0.906697 0.569671 0.000000
0.902706 0.614949 0.000000
0.896516 0.651663 0.000000
0.889266 0.682653 0.000000
0.886650 0.707456 0.000000
0.888290 0.729221 0.000000
0.896548 0.748388 0.000000
0.909950 0.768024 0.000000
0.928728 0.791366 0.000000
0.951347 0.814792 0.000000
0.970856 0.838435 0.000000
1.000000 0.859415 0.000000
0.000000 0.009640 0.000000
0.584445 0.019861 0.000000
0.791366 0.071272 0.000000
0.848527 0.159241 0.000000
0.873411 0.269546 0.000000
0.878515 0.354809 0.000000
0.880830 0.443361 0.000000
0.869863 0.524919 0.000000
0.853635 0.586747 0.000000
0.838196 0.635008 0.000000
0.817719 0.679370 0.000000
0.799421 0.718363 0.000000
0.783216 0.754632 0.000000
0.778836 0.784276 0.000000
0.782857 0.808274 0.000000
0.795419 0.826573 0.000000
0.815462 0.839247 0.000000
0.840759 0.848527 0.000000
0.877471 0.853718 0.000000
0.922620 0.869082 0.000000
1.000000 0.887400 0.000000
0.000000 0.012509 0.000000
0.583734 0.026823 0.000000
0.768024 0.090050 0.000000
0.839247 0.184538 0.000000
0.842395 0.314773 0.000000
0.853626 0.402612 0.000000
0.844641 0.501711 0.000000
0.816152 0.572915 0.000000
0.787457 0.629193 0.000000
0.758398 0.674180 0.000000
0.727606 0.709609 0.000000
0.706362 0.735813 0.000000
0.685276 0.754990 0.000000
0.672186 0.772680 0.000000
0.667164 0.791669 0.000000
0.669205 0.815032 0.000000
0.685227 0.842395 0.000000
0.730454 0.873411 0.000000
0.807365 0.893677 0.000000
0.902317 0.901288 0.000000
1.000000 0.911363 0.000000
0.000000 0.014930 0.000000
0.569013 0.032340 0.000000
0.748388 0.103452 0.000000
0.826573 0.204581 0.000000
0.815032 0.330795 0.000000
0.829661 0.426891 0.000000
0.808307 0.516139 0.000000
0.771752 0.578565 0.000000
0.735716 0.629635 0.000000
0.698331 0.668085 0.000000
0.657112 0.698673 0.000000
0.618607 0.724927 0.000000
0.582856 0.749342 0.000000
0.565198 0.776982 0.000000
0.560192 0.803734 0.000000
0.573109 0.829661 0.000000
0.597388 0.853626 0.000000
0.645191 0.878515 0.000000
0.720151 0.903793 0.000000
0.847272 0.917637 0.000000
1.000000 0.928444 0.000000
0.000000 0.017328 0.000000
0.547256 0.037102 0.000000
0.729221 0.111710 0.000000
0.808274 0.217143 0.000000
0.791669 0.332836 0.000000
0.803734 0.439808 0.000000
0.770380 0.516183 0.000000
0.730490 0.573804 0.000000
0.685188 0.618983 0.000000
0.642793 0.651499 0.000000
0.598310 0.675616 0.000000
0.559998 0.697489 0.000000
0.525321 0.715970 0.000000
0.500683 0.741768 0.000000
0.483817 0.770380 0.000000
0.483861 0.808307 0.000000
0.498289 0.844641 0.000000
0.556639 0.880830 0.000000
0.639325 0.908526 0.000000
0.799745 0.929180 0.000000
1.000000 0.941044 0.000000
0.000000 0.019710 0.000000
0.520269 0.041209 0.000000
0.707456 0.113350 0.000000
0.784276 0.221164 0.000000
0.772680 0.327814 0.000000
0.776982 0.434802 0.000000
0.741768 0.499317 0.000000
0.698403 0.554466 0.000000
0.650051 0.591229 0.000000
0.604867 0.619089 0.000000
0.558015 0.638253 0.000000
0.514097 0.654549 0.000000
0.474136 0.671092 0.000000
0.445534 0.698403 0.000000
0.426196 0.730490 0.000000
0.421435 0.771752 0.000000
0.427085 0.816152 0.000000
0.475081 0.869863 0.000000
0.557403 0.910869 0.000000
0.746244 0.935843 0.000000
1.000000 0.951461 0.000000
0.000000 0.022365 0.000000
0.487165 0.044986 0.000000
0.682653 0.110734 0.000000
0.754632 0.216784 0.000000
0.754990 0.314724 0.000000
0.749342 0.417144 0.000000
0.715970 0.474679 0.000000
0.671092 0.525864 0.000000
0.620601 0.555805 0.000000
0.574212 0.580135 0.000000
0.527601 0.593440 0.000000
0.485066 0.607036 0.000000
0.444195 0.620601 0.000000
0.408771 0.650051 0.000000
0.381017 0.685188 0.000000
0.370365 0.735716 0.000000
0.370807 0.787457 0.000000
0.413253 0.853635 0.000000
0.484108 0.908477 0.000000
0.690906 0.940412 0.000000
1.000000 0.959038 0.000000
0.000000 0.025638 0.000000
0.446871 0.048341 0.000000
0.651663 0.103484 0.000000
0.718363 0.200579 0.000000
0.735813 0.293638 0.000000
0.724927 0.381393 0.000000
0.697489 0.440002 0.000000
0.654549 0.485903 0.000000
0.607036 0.514934 0.000000
0.559133 0.535632 0.000000
0.511016 0.547048 0.000000
0.464368 0.559133 0.000000
0.419865 0.574212 0.000000
0.380911 0.604867 0.000000
0.348501 0.642793 0.000000
0.331915 0.698331 0.000000
0.325820 0.758398 0.000000
0.364992 0.838196 0.000000
0.430329 0.906697 0.000000
0.641288 0.944293 0.000000
1.000000 0.965185 0.000000
0.000000 0.029736 0.000000
0.404152 0.051976 0.000000
0.614949 0.097294 0.000000
0.679370 0.182281 0.000000
0.709609 0.272394 0.000000
0.698673 0.342888 0.000000
0.675616 0.401690 0.000000
0.638253 0.441985 0.000000
0.593440 0.472399 0.000000
0.547048 0.488984 0.000000
0.500000 0.500000 0.000000
0.452952 0.511016 0.000000
0.406560 0.527601 0.000000
0.361747 0.558015 0.000000
0.324384 0.598310 0.000000
0.301327 0.657112 0.000000
0.290391 0.727606 0.000000
0.320630 0.817719 0.000000
0.385051 0.902706 0.000000
0.595848 0.948024 0.000000
1.000000 0.970264 0.000000
0.000000 0.034815 0.000000
0.358712 0.055707 0.000000
0.569671 0.093303 0.000000
0.635008 0.161804 0.000000
0.674180 0.241602 0.000000
0.668085 0.301669 0.000000
0.651499 0.357207 0.000000
0.619089 0.395133 0.000000
0.580135 0.425788 0.000000
0.535632 0.440867 0.000000
0.488984 0.452952 0.000000
0.440867 0.464368 0.000000
0.392964 0.485066 0.000000
0.345451 0.514097 0.000000
0.302511 0.559998 0.000000
0.275073 0.618607 0.000000
0.264187 0.706362 0.000000
0.281637 0.799421 0.000000
0.348337 0.896516 0.000000
0.553129 0.951659 0.000000
1.000000 0.974362 0.000000
0.000000 0.040962 0.000000
0.309094 0.059588 0.000000
0.515892 0.091523 0.000000
0.586747 0.146365 0.000000
0.629193 0.212543 0.000000
0.629635 0.264284 0.000000
0.618983 0.314812 0.000000
0.591229 0.349949 0.000000
0.555805 0.379399 0.000000
0.514934 0.392964 0.000000
0.472399 0.406560 0.000000
0.425788 0.419865 0.000000
0.379399 0.444195 0.000000
0.328908 0.474136 0.000000
0.284030 0.525321 0.000000
0.250658 0.582856 0.000000
0.245010 0.685276 0.000000
0.245368 0.783216 0.000000
0.317347 0.889266 0.000000
0.512835 0.955014 0.000000
1.000000 0.977635 0.000000
0.000000 0.048539 0.000000
0.253756 0.064157 0.000000
0.442597 0.089131 0.000000
0.524919 0.130137 0.000000
0.572915 0.183848 0.000000
0.578565 0.228248 0.000000
0.573804 0.269510 0.000000
0.554466 0.301597 0.000000
0.525864 0.328908 0.000000
0.485903 0.345451 0.000000
0.441985 0.361747 0.000000
0.395133 0.380911 0.000000
0.349949 0.408771 0.000000
0.301597 0.445534 0.000000
0.258232 0.500683 0.000000
0.223018 0.565198 0.000000
0.227320 0.672186 0.000000
0.215724 0.778836 0.000000
0.292544 0.886650 0.000000
0.479731 0.958791 0.000000
1.000000 0.980290 0.000000
0.000000 0.058956 0.000000
0.200255 0.070820 0.000000
0.360675 0.091474 0.000000
0.443361 0.119170 0.000000
0.501711 0.155359 0.000000
0.516139 0.191693 0.000000
0.516183 0.229620 0.000000
0.499317 0.258232 0.000000
0.474679 0.284030 0.000000
0.440002 0.302511 0.000000
0.401690 0.324384 0.000000
0.357207 0.348501 0.000000
0.314812 0.381017 0.000000
0.269510 0.426196 0.000000
0.229620 0.483817 0.000000
0.196266 0.560192 0.000000
0.208331 0.667164 0.000000
0.191726 0.782857 0.000000
0.270779 0.888290 0.000000
0.452744 0.962898 0.000000
1.000000 0.982672 0.000000
0.000000 0.071556 0.000000
0.152728 0.082363 0.000000
0.279849 0.096207 0.000000
0.354809 0.121485 0.000000
0.402612 0.146374 0.000000
0.426891 0.170339 0.000000
0.439808 0.196266 0.000000
0.434802 0.223018 0.000000
0.417144 0.250658 0.000000
0.381393 0.275073 0.000000
0.342888 0.301327 0.000000
0.301669 0.331915 0.000000
0.264284 0.370365 0.000000
0.228248 0.421435 0.000000
0.191693 0.483861 0.000000
0.170339 0.573109 0.000000
0.184968 0.669205 0.000000
0.173427 0.795419 0.000000
0.251612 0.896548 0.000000
0.430987 0.967660 0.000000
1.000000 0.985070 0.000000
0.000000 0.088637 0.000000
0.097683 0.098712 0.000000
0.192635 0.106323 0.000000
0.269546 0.126589 0.000000
0.314773 0.157605 0.000000
0.330795 0.184968 0.000000
0.332836 0.208331 0.000000
0.327814 0.227320 0.000000
0.314724 0.245010 0.000000
0.293638 0.264187 0.000000
0.272394 0.290391 0.000000
0.241602 0.325820 0.000000
0.212543 0.370807 0.000000
0.183848 0.427085 0.000000
0.155359 0.498289 0.000000
0.146374 0.597388 0.000000
0.157605 0.685227 0.000000
0.160753 0.815462 0.000000
0.231976 0.909950 0.000000
0.416266 0.973177 0.000000
1.000000 0.987491 0.000000
0.000000 0.112600 0.000000
0.077380 0.130918 0.000000
0.122529 0.146282 0.000000
0.159241 0.151473 0.000000
0.184538 0.160753 0.000000
0.204581 0.173427 0.000000
0.217143 0.191726 0.000000
0.221164 0.215724 0.000000
0.216784 0.245368 0.000000
[...]
POINT_DATA 2205 
VECTORS pos float 
0.000000 0.000000 0.000000
0.557455 0.000000 0.000000
0.859415 0.000000 0.000000
0.887400 0.000000 0.000000
0.911363 0.000000 0.000000
0.928444 0.000000 0.000000
0.941044 0.000000 0.000000
0.951461 0.000000 0.000000
0.959038 0.000000 0.000000
0.965185 0.000000 0.000000
0.970264 0.000000 0.000000
0.974362 0.000000 0.000000
0.977635 0.000000 0.000000
0.980290 0.000000 0.000000
0.982672 0.000000 0.000000
0.985070 0.000000 0.000000
0.987491 0.000000 0.000000
0.990360 0.000000 0.000000
0.993638 0.000000 0.000000
0.997031 0.000000 0.000000
1.000000 0.000000 0.000000
0.000000 0.002969 0.000000
0.558146 0.005756 0.000000
0.838435 0.029144 0.000000
0.869082 0.077380 0.000000
0.901288 0.097683 0.000000
0.917637 0.152728 0.000000
0.929180 0.200255 0.000000
0.935843 0.253756 0.000000
0.940412 0.309094 0.000000
0.944293 0.358712 0.000000
0.948024 0.404152 0.000000
0.951659 0.446871 0.000000
0.955014 0.487165 0.000000
0.958791 0.520269 0.000000
0.962898 0.547256 0.000000
0.967660 0.569013 0.000000
0.973177 0.583734 0.000000
0.980139 0.584445 0.000000
0.987595 0.569630 0.000000
0.994244 0.558146 0.000000
1.000000 0.557455 0.000000
0.000000 0.006362 0.000000
0.569630 0.012405 0.000000
0.814792 0.048653 0.000000
0.853718 0.122529 0.000000
0.893677 0.192635 0.000000
0.903793 0.279849 0.000000
0.908526 0.360675 0.000000
0.910869 0.442597 0.000000
0.908477 0.515892 0.000000
0.906697 0.569671 0.000000
0.902706 0.614949 0.000000
0.896516 0.651663 0.000000
0.889266 0.682653 0.000000
0.886650 0.707456 0.000000
0.888290 0.729221 0.000000
0.896548 0.748388 0.000000
0.909950 0.768024 0.000000
0.928728 0.791366 0.000000
0.951347 0.814792 0.000000
0.970856 0.838435 0.000000
1.000000 0.859415 0.000000
0.000000 0.009640 0.000000
0.584445 0.019861 0.000000
0.791366 0.071272 0.000000
0.848527 0.159241 0.000000
0.873411 0.269546 0.000000
0.878515 0.354809 0.000000
0.880830 0.443361 0.000000
0.869863 0.524919 0.000000
0.853635 0.586747 0.000000
0.838196 0.635008 0.000000
0.817719 0.679370 0.000000
0.799421 0.718363 0.000000
0.783216 0.754632 0.000000
0.778836 0.784276 0.000000
0.782857 0.808274 0.000000
0.795419 0.826573 0.000000
0.815462 0.839247 0.000000
0.840759 0.848527 0.000000
0.877471 0.853718 0.000000
0.922620 0.869082 0.000000
1.000000 0.887400 0.000000
0.000000 0.012509 0.000000
0.583734 0.026823 0.000000
0.768024 0.090050 0.000000
0.839247 0.184538 0.000000
0.842395 0.314773 0.000000
0.853626 0.402612 0.000000
0.844641 0.501711 0.000000
0.816152 0.572915 0.000000
0.787457 0.629193 0.000000
0.758398 0.674180 0.000000
0.727606 0.709609 0.000000
0.706362 0.735813 0.000000
0.685276 0.754990 0.000000
0.672186 0.772680 0.000000
0.667164 0.791669 0.000000
0.669205 0.815032 0.000000
0.685227 0.842395 0.000000
0.730454 0.873411 0.000000
0.807365 0.893677 0.000000
0.902317 0.901288 0.000000
1.000000 0.911363 0.000000
0.000000 0.014930 0.000000
0.569013 0.032340 0.000000
0.748388 0.103452 0.000000
0.826573 0.204581 0.000000
0.815032 0.330795 0.000000
0.829661 0.426891 0.000000
0.808307 0.516139 0.000000
0.771752 0.578565 0.000000
0.735716 0.629635 0.000000
0.698331 0.668085 0.000000
0.657112 0.698673 0.000000
0.618607 0.724927 0.000000
0.582856 0.749342 0.000000
0.565198 0.776982 0.000000
0.560192 0.803734 0.000000
0.573109 0.829661 0.000000
0.597388 0.853626 0.000000
0.645191 0.878515 0.000000
0.720151 0.903793 0.000000
0.847272 0.917637 0.000000
1.000000 0.928444 0.000000
0.000000 0.017328 0.000000
0.547256 0.037102 0.000000
0.729221 0.111710 0.000000
0.808274 0.217143 0.000000
0.791669 0.332836 0.000000
0.803734 0.439808 0.000000
0.770380 0.516183 0.000000
0.730490 0.573804 0.000000
0.685188 0.618983 0.000000
0.642793 0.651499 0.000000
0.598310 0.675616 0.000000
0.559998 0.697489 0.000000
0.525321 0.715970 0.000000
0.500683 0.741768 0.000000
0.483817 0.770380 0.000000
0.483861 0.808307 0.000000
0.498289 0.844641 0.000000
0.556639 0.880830 0.000000
0.639325 0.908526 0.000000
0.799745 0.929180 0.000000
1.000000 0.941044 0.000000
0.000000 0.019710 0.000000
0.520269 0.041209 0.000000
0.707456 0.113350 0.000000
0.784276 0.221164 0.000000
0.772680 0.327814 0.000000
0.776982 0.434802 0.000000
0.741768 0.499317 0.000000
0.698403 0.554466 0.000000
0.650051 0.591229 0.000000
0.604867 0.619089 0.000000
0.558015 0.638253 0.000000
0.514097 0.654549 0.000000
0.474136 0.671092 0.000000
0.445534 0.698403 0.000000
0.426196 0.730490 0.000000
0.421435 0.771752 0.000000
0.427085 0.816152 0.000000
0.475081 0.869863 0.000000
0.557403 0.910869 0.000000
0.746244 0.935843 0.000000
1.000000 0.951461 0.000000
0.000000 0.022365 0.000000
0.487165 0.044986 0.000000
0.682653 0.110734 0.000000
0.754632 0.216784 0.000000
0.754990 0.314724 0.000000
0.749342 0.417144 0.000000
0.715970 0.474679 0.000000
0.671092 0.525864 0.000000
0.620601 0.555805 0.000000
0.574212 0.580135 0.000000
0.527601 0.593440 0.000000
0.485066 0.607036 0.000000
0.444195 0.620601 0.000000
0.408771 0.650051 0.000000
0.381017 0.685188 0.000000
0.370365 0.735716 0.000000
0.370807 0.787457 0.000000
0.413253 0.853635 0.000000
0.484108 0.908477 0.000000
0.690906 0.940412 0.000000
1.000000 0.959038 0.000000
0.000000 0.025638 0.000000
0.446871 0.048341 0.000000
0.651663 0.103484 0.000000
0.718363 0.200579 0.000000
0.735813 0.293638 0.000000
0.724927 0.381393 0.000000
0.697489 0.440002 0.000000
0.654549 0.485903 0.000000
0.607036 0.514934 0.000000
0.559133 0.535632 0.000000
0.511016 0.547048 0.000000
0.464368 0.559133 0.000000
0.419865 0.574212 0.000000
0.380911 0.604867 0.000000
0.348501 0.642793 0.000000
0.331915 0.698331 0.000000
0.325820 0.758398 0.000000
0.364992 0.838196 0.000000
0.430329 0.906697 0.000000
0.641288 0.944293 0.000000
1.000000 0.965185 0.000000
0.000000 0.029736 0.000000
0.404152 0.051976 0.000000
0.614949 0.097294 0.000000
0.679370 0.182281 0.000000
0.709609 0.272394 0.000000
0.698673 0.342888 0.000000
0.675616 0.401690 0.000000
0.638253 0.441985 0.000000
0.593440 0.472399 0.000000
0.547048 0.488984 0.000000
0.500000 0.500000 0.000000
0.452952 0.511016 0.000000
0.406560 0.527601 0.000000
0.361747 0.558015 0.000000
0.324384 0.598310 0.000000
0.301327 0.657112 0.000000
0.290391 0.727606 0.000000
0.320630 0.817719 0.000000
0.385051 0.902706 0.000000
0.595848 0.948024 0.000000
1.000000 0.970264 0.000000
0.000000 0.034815 0.000000
0.358712 0.055707 0.000000
0.569671 0.093303 0.000000
0.635008 0.161804 0.000000
0.674180 0.241602 0.000000
0.668085 0.301669 0.000000
0.651499 0.357207 0.000000
0.619089 0.395133 0.000000
0.580135 0.425788 0.000000
0.535632 0.440867 0.000000
0.488984 0.452952 0.000000
0.440867 0.464368 0.000000
0.392964 0.485066 0.000000
0.345451 0.514097 0.000000
0.302511 0.559998 0.000000
0.275073 0.618607 0.000000
0.264187 0.706362 0.000000
0.281637 0.799421 0.000000
0.348337 0.896516 0.000000
0.553129 0.951659 0.000000
1.000000 0.974362 0.000000
0.000000 0.040962 0.000000
0.309094 0.059588 0.000000
0.515892 0.091523 0.000000
0.586747 0.146365 0.000000
0.629193 0.212543 0.000000
0.629635 0.264284 0.000000
0.618983 0.314812 0.000000
0.591229 0.349949 0.000000
0.555805 0.379399 0.000000
0.514934 0.392964 0.000000
0.472399 0.406560 0.000000
0.425788 0.419865 0.000000
0.379399 0.444195 0.000000
0.328908 0.474136 0.000000
0.284030 0.525321 0.000000
0.250658 0.582856 0.000000
0.245010 0.685276 0.000000
0.245368 0.783216 0.000000
0.317347 0.889266 0.000000
0.512835 0.955014 0.000000
1.000000 0.977635 0.000000
0.000000 0.048539 0.000000
0.253756 0.064157 0.000000
0.442597 0.089131 0.000000
0.524919 0.130137 0.000000
0.572915 0.183848 0.000000
0.578565 0.228248 0.000000
0.573804 0.269510 0.000000
0.554466 0.301597 0.000000
0.525864 0.328908 0.000000
0.485903 0.345451 0.000000
0.441985 0.361747 0.000000
0.395133 0.380911 0.000000
0.349949 0.408771 0.000000
0.301597 0.445534 0.000000
0.258232 0.500683 0.000000
0.223018 0.565198 0.000000
0.227320 0.672186 0.000000
0.215724 0.778836 0.000000
0.292544 0.886650 0.000000
0.479731 0.958791 0.000000
1.000000 0.980290 0.000000
0.000000 0.058956 0.000000
0.200255 0.070820 0.000000
0.360675 0.091474 0.000000
0.443361 0.119170 0.000000
0.501711 0.155359 0.000000
0.516139 0.191693 0.000000
0.516183 0.229620 0.000000
0.499317 0.258232 0.000000
0.474679 0.284030 0.000000
0.440002 0.302511 0.000000
0.401690 0.324384 0.000000
0.357207 0.348501 0.000000
0.314812 0.381017 0.000000
0.269510 0.426196 0.000000
0.229620 0.483817 0.000000
0.196266 0.560192 0.000000
0.208331 0.667164 0.000000
0.191726 0.782857 0.000000
0.270779 0.888290 0.000000
0.452744 0.962898 0.000000
1.000000 0.982672 0.000000
0.000000 0.071556 0.000000
0.152728 0.082363 0.000000
0.279849 0.096207 0.000000
0.354809 0.121485 0.000000
0.402612 0.146374 0.000000
0.426891 0.170339 0.000000
0.439808 0.196266 0.000000
0.434802 0.223018 0.000000
0.417144 0.250658 0.000000
0.381393 0.275073 0.000000
0.342888 0.301327 0.000000
0.301669 0.331915 0.000000
0.264284 0.370365 0.000000
0.228248 0.421435 0.000000
0.191693 0.483861 0.000000
0.170339 0.573109 0.000000
0.184968 0.669205 0.000000
0.173427 0.795419 0.000000
0.251612 0.896548 0.000000
0.430987 0.967660 0.000000
1.000000 0.985070 0.000000
0.000000 0.088637 0.000000
0.097683 0.098712 0.000000
0.192635 0.106323 0.000000
0.269546 0.126589 0.000000
0.314773 0.157605 0.000000
0.330795 0.184968 0.000000
0.332836 0.208331 0.000000
0.327814 0.227320 0.000000
0.314724 0.245010 0.000000
0.293638 0.264187 0.000000
0.272394 0.290391 0.000000
0.241602 0.325820 0.000000
0.212543 0.370807 0.000000
0.183848 0.427085 0.000000
0.155359 0.498289 0.000000
0.146374 0.597388 0.000000
0.157605 0.685227 0.000000
0.160753 0.815462 0.000000
0.231976 0.909950 0.000000
0.416266 0.973177 0.000000
1.000000 0.987491 0.000000
0.000000 0.112600 0.000000
0.077380 0.130918 0.000000
0.122529 0.146282 0.000000
0.159241 0.151473 0.000000
0.184538 0.160753 0.000000
0.204581 0.173427 0.000000
0.217143 0.191726 0.000000
0.221164 0.215724 0.000000
0.216784 0.245368 0.000000
0.200579 0.281637 0.000000
0.182281 0.320630 0.000000
0.161804 0.364992 0.000000
0.146365 0.413253 0.000000
0.130137 0.475081 0.000000
0.119170 0.556639 0.000000
0.121485 0.645191 0.000000
0.126589 0.730454 0.000000
0.151473 0.840759 0.000000
0.208634 0.928728 0.000000
0.415555 0.980139 0.000000
1.000000 0.990360 0.000000
0.000000 0.140585 0.000000
0.029144 0.161565 0.000000
0.048653 0.185208 0.000000
0.071272 0.208634 0.000000
0.090050 0.231976 0.000000
0.103452 0.251612 0.000000
0.111710 0.270779 0.000000
0.113350 0.292544 0.000000
0.110734 0.317347 0.000000
0.103484 0.348337 0.000000
0.097294 0.385051 0.000000
0.093303 0.430329 0.000000
0.091523 0.484108 0.000000
0.089131 0.557403 0.000000
0.091474 0.639325 0.000000
0.096207 0.720151 0.000000
0.106323 0.807365 0.000000
0.146282 0.877471 0.000000
0.185208 0.951347 0.000000
0.430370 0.987595 0.000000
1.000000 0.993638 0.000000
0.000000 0.442545 0.000000
0.005756 0.441854 0.000000
0.012405 0.430370 0.000000
0.019861 0.415555 0.000000
0.026823 0.416266 0.000000
0.032340 0.430987 0.000000
0.037102 0.452744 0.000000
0.041209 0.479731 0.000000
0.044986 0.512835 0.000000
0.048341 0.553129 0.000000
0.051976 0.595848 0.000000
0.055707 0.641288 0.000000
0.059588 0.690906 0.000000
0.064157 0.746244 0.000000
0.070820 0.799745 0.000000
0.082363 0.847272 0.000000
0.098712 0.902317 0.000000
0.130918 0.922620 0.000000
0.161565 0.970856 0.000000
0.441854 0.994244 0.000000
1.000000 0.997031 0.000000
0.000000 1.000000 0.000000
0.002969 1.000000 0.000000
0.006362 1.000000 0.000000
0.009640 1.000000 0.000000
0.012509 1.000000 0.000000
0.014930 1.000000 0.000000
0.017328 1.000000 0.000000
0.019710 1.000000 0.000000
0.022365 1.000000 0.000000
0.025638 1.000000 0.000000
0.029736 1.000000 0.000000
0.034815 1.000000 0.000000
0.040962 1.000000 0.000000
0.048539 1.000000 0.000000
0.058956 1.000000 0.000000
0.071556 1.000000 0.000000
0.088637 1.000000 0.000000
0.112600 1.000000 0.000000
0.140585 1.000000 0.000000
0.442545 1.000000 0.000000
1.000000 1.000000 0.000000
0.000000 0.000000 0.082500
0.557455 0.000000 0.082500
0.859415 0.000000 0.082500
0.887400 0.000000 0.082500
0.911363 0.000000 0.082500
0.928444 0.000000 0.082500
0.941044 0.000000 0.082500
0.951461 0.000000 0.082500
0.959038 0.000000 0.082500
0.965185 0.000000 0.082500
0.970264 0.000000 0.082500
0.974362 0.000000 0.082500
0.977635 0.000000 0.082500
0.980290 0.000000 0.082500
0.982672 0.000000 0.082500
0.985070 0.000000 0.082500
0.987491 0.000000 0.082500
0.990360 0.000000 0.082500
0.993638 0.000000 0.082500
0.997031 0.000000 0.082500
1.000000 0.000000 0.082500
0.000000 0.002969 0.082500
0.558146 0.005756 0.082500
0.838435 0.029144 0.082500
0.869082 0.077380 0.082500
0.901288 0.097683 0.082500
0.917637 0.152728 0.082500
0.929180 0.200255 0.082500
0.935843 0.253756 0.082500
0.940412 0.309094 0.082500
0.944293 0.358712 0.082500
0.948024 0.404152 0.082500
0.951659 0.446871 0.082500
0.955014 0.487165 0.082500
0.958791 0.520269 0.082500
0.962898 0.547256 0.082500
0.967660 0.569013 0.082500
0.973177 0.583734 0.082500
0.980139 0.584445 0.082500
0.987595 0.569630 0.082500
0.994244 0.558146 0.082500
1.000000 0.557455 0.082500
0.000000 0.006362 0.082500
0.569630 0.012405 0.082500
0.814792 0.048653 0.082500
0.853718 0.122529 0.082500
0.893677 0.192635 0.082500
0.903793 0.279849 0.082500
0.908526 0.360675 0.082500
0.910869 0.442597 0.082500
0.908477 0.515892 0.082500
0.906697 0.569671 0.082500
0.902706 0.614949 0.082500
0.896516 0.651663 0.082500
0.889266 0.682653 0.082500
0.886650 0.707456 0.082500
0.888290 0.729221 0.082500
0.896548 0.748388 0.082500
0.909950 0.768024 0.082500
0.928728 0.791366 0.082500
0.951347 0.814792 0.082500
0.970856 0.838435 0.082500
1.000000 0.859415 0.082500
0.000000 0.009640 0.082500
0.584445 0.019861 0.082500
0.791366 0.071272 0.082500
0.848527 0.159241 0.082500
0.873411 0.269546 0.082500
0.878515 0.354809 0.082500
0.880830 0.443361 0.082500
0.869863 0.524919 0.082500
0.853635 0.586747 0.082500
0.838196 0.635008 0.082500
0.817719 0.679370 0.082500
0.799421 0.718363 0.082500
0.783216 0.754632 0.082500
0.778836 0.784276 0.082500
0.782857 0.808274 0.082500
0.795419 0.826573 0.082500
0.815462 0.839247 0.082500
0.840759 0.848527 0.082500
0.877471 0.853718 0.082500
0.922620 0.869082 0.082500
1.000000 0.887400 0.082500
0.000000 0.012509 0.082500
0.583734 0.026823 0.082500
0.768024 0.090050 0.082500
0.839247 0.184538 0.082500
0.842395 0.314773 0.082500
0.853626 0.402612 0.082500
0.844641 0.501711 0.082500
0.816152 0.572915 0.082500
0.787457 0.629193 0.082500
0.758398 0.674180 0.082500
0.727606 0.709609 0.082500
0.706362 0.735813 0.082500
0.685276 0.754990 0.082500
0.672186 0.772680 0.082500
0.667164 0.791669 0.082500
0.669205 0.815032 0.082500
0.685227 0.842395 0.082500
0.730454 0.873411 0.082500
0.807365 0.893677 0.082500
0.902317 0.901288 0.082500
1.000000 0.911363 0.082500
0.000000 0.014930 0.082500
0.569013 0.032340 0.082500
0.748388 0.103452 0.082500
0.826573 0.204581 0.082500
0.815032 0.330795 0.082500
0.829661 0.426891 0.082500
0.808307 0.516139 0.082500
0.771752 0.578565 0.082500
0.735716 0.629635 0.082500
0.698331 0.668085 0.082500
0.657112 0.698673 0.082500
0.618607 0.724927 0.082500
0.582856 0.749342 0.082500
0.565198 0.776982 0.082500
0.560192 0.803734 0.082500
0.573109 0.829661 0.082500
0.597388 0.853626 0.082500
0.645191 0.878515 0.082500
0.720151 0.903793 0.082500
0.847272 0.917637 0.082500
1.000000 0.928444 0.082500
0.000000 0.017328 0.082500
0.547256 0.037102 0.082500
0.729221 0.111710 0.082500
0.808274 0.217143 0.082500
0.791669 0.332836 0.082500
0.803734 0.439808 0.082500
0.770380 0.516183 0.082500
0.730490 0.573804 0.082500
0.685188 0.618983 0.082500
0.642793 0.651499 0.082500
0.598310 0.675616 0.082500
0.559998 0.697489 0.082500
0.525321 0.715970 0.082500
0.500683 0.741768 0.082500
0.483817 0.770380 0.082500
0.483861 0.808307 0.082500
0.498289 0.844641 0.082500
0.556639 0.880830 0.082500
0.639325 0.908526 0.082500
0.799745 0.929180 0.082500
1.000000 0.941044 0.082500
0.000000 0.019710 0.082500
0.520269 0.041209 0.082500
0.707456 0.113350 0.082500
0.784276 0.221164 0.082500
0.772680 0.327814 0.082500
0.776982 0.434802 0.082500
0.741768 0.499317 0.082500
0.698403 0.554466 0.082500
0.650051 0.591229 0.082500
0.604867 0.619089 0.082500
0.558015 0.638253 0.082500
0.514097 0.654549 0.082500
0.474136 0.671092 0.082500
0.445534 0.698403 0.082500
0.426196 0.730490 0.082500
0.421435 0.771752 0.082500
0.427085 0.816152 0.082500
0.475081 0.869863 0.082500
0.557403 0.910869 0.082500
0.746244 0.935843 0.082500
1.000000 0.951461 0.082500
0.000000 0.022365 0.082500
0.487165 0.044986 0.082500
0.682653 0.110734 0.082500
0.754632 0.216784 0.082500
0.754990 0.314724 0.082500
0.749342 0.417144 0.082500
0.715970 0.474679 0.082500
0.671092 0.525864 0.082500
0.620601 0.555805 0.082500
0.574212 0.580135 0.082500
0.527601 0.593440 0.082500
0.485066 0.607036 0.082500
0.444195 0.620601 0.082500
0.408771 0.650051 0.082500
0.381017 0.685188 0.082500
0.370365 0.735716 0.082500
0.370807 0.787457 0.082500
0.413253 0.853635 0.082500
0.484108 0.908477 0.082500
0.690906 0.940412 0.082500
1.000000 0.959038 0.082500
0.000000 0.025638 0.082500
0.446871 0.048341 0.082500
0.651663 0.103484 0.082500
0.718363 0.200579 0.082500
0.735813 0.293638 0.082500
0.724927 0.381393 0.082500
0.697489 0.440002 0.082500
0.654549 0.485903 0.082500
0.607036 0.514934 0.082500
0.559133 0.535632 0.082500
0.511016 0.547048 0.082500
0.464368 0.559133 0.082500
0.419865 0.574212 0.082500
0.380911 0.604867 0.082500
0.348501 0.642793 0.082500
0.331915 0.698331 0.082500
0.325820 0.758398 0.082500
0.364992 0.838196 0.082500
0.430329 0.906697 0.082500
0.641288 0.944293 0.082500
1.000000 0.965185 0.082500
0.000000 0.029736 0.082500
0.404152 0.051976 0.082500
0.614949 0.097294 0.082500
0.679370 0.182281 0.082500
0.709609 0.272394 0.082500
0.698673 0.342888 0.082500
0.675616 0.401690 0.082500
0.638253 0.441985 0.082500
0.593440 0.472399 0.082500
0.547048 0.488984 0.082500
0.500000 0.500000 0.082500
0.452952 0.511016 0.082500
0.406560 0.527601 0.082500
0.361747 0.558015 0.082500
0.324384 0.598310 0.082500
0.301327 0.657112 0.082500
0.290391 0.727606 0.082500
0.320630 0.817719 0.082500
0.385051 0.902706 0.082500
0.595848 0.948024 0.082500
1.000000 0.970264 0.082500
0.000000 0.034815 0.082500
0.358712 0.055707 0.082500
0.569671 0.093303 0.082500
0.635008 0.161804 0.082500
0.674180 0.241602 0.082500
0.668085 0.301669 0.082500
0.651499 0.357207 0.082500
0.619089 0.395133 0.082500
0.580135 0.425788 0.082500
0.535632 0.440867 0.082500
0.488984 0.452952 0.082500
0.440867 0.464368 0.082500
0.392964 0.485066 0.082500
0.345451 0.514097 0.082500
0.302511 0.559998 0.082500
0.275073 0.618607 0.082500
0.264187 0.706362 0.082500
0.281637 0.799421 0.082500
0.348337 0.896516 0.082500
0.553129 0.951659 0.082500
1.000000 0.974362 0.082500
0.000000 0.040962 0.082500
0.309094 0.059588 0.082500
0.515892 0.091523 0.082500
0.586747 0.146365 0.082500
0.629193 0.212543 0.082500
0.629635 0.264284 0.082500
0.618983 0.314812 0.082500
0.591229 0.349949 0.082500
0.555805 0.379399 0.082500
0.514934 0.392964 0.082500
0.472399 0.406560 0.082500
0.425788 0.419865 0.082500
0.379399 0.444195 0.082500
0.328908 0.474136 0.082500
0.284030 0.525321 0.082500
0.250658 0.582856 0.082500
0.245010 0.685276 0.082500
0.245368 0.783216 0.082500
0.317347 0.889266 0.082500
0.512835 0.955014 0.082500
1.000000 0.977635 0.082500
0.000000 0.048539 0.082500
0.253756 0.064157 0.082500
0.442597 0.089131 0.082500
0.524919 0.130137 0.082500
0.572915 0.183848 0.082500
0.578565 0.228248 0.082500
0.573804 0.269510 0.082500
0.554466 0.301597 0.082500
0.525864 0.328908 0.082500
0.485903 0.345451 0.082500
0.441985 0.361747 0.082500
0.395133 0.380911 0.082500
0.349949 0.408771 0.082500
0.301597 0.445534 0.082500
0.258232 0.500683 0.082500
0.223018 0.565198 0.082500
0.227320 0.672186 0.082500
0.215724 0.778836 0.082500
0.292544 0.886650 0.082500
0.479731 0.958791 0.082500
1.000000 0.980290 0.082500
0.000000 0.058956 0.082500
0.200255 0.070820 0.082500
0.360675 0.091474 0.082500
0.443361 0.119170 0.082500