# vtk DataFile Version 2.0
Mesh for Fierro
ASCII 
DATASET UNSTRUCTURED_GRID

POINTS 2205 float
0.000000 0.000000 0.000000
0.499391 0.000000 0.000000
0.732591 0.000000 0.000000
0.806419 0.000000 0.000000
0.856164 0.000000 0.000000
0.884113 0.000000 0.000000
0.905348 0.000000 0.000000
0.921051 0.000000 0.000000
0.932916 0.000000 0.000000
0.942688 0.000000 0.000000
0.950931 0.000000 0.000000
0.957992 0.000000 0.000000
0.963883 0.000000 0.000000
0.968970 0.000000 0.000000
0.973547 0.000000 0.000000
0.977803 0.000000 0.000000
0.981894 0.000000 0.000000
0.986182 0.000000 0.000000
0.990624 0.000000 0.000000
0.995254 0.000000 0.000000
1.000000 0.000000 0.000000
0.000000 0.004746 0.000000
0.496955 0.007022 0.000000
0.727392 0.022459 0.000000
0.803335 0.039716 0.000000
0.852743 0.073507 0.000000
0.880096 0.106175 0.000000
0.900686 0.138442 0.000000
0.914215 0.179120 0.000000
0.924484 0.222271 0.000000
0.932676 0.262793 0.000000
0.939691 0.300952 0.000000
0.945869 0.337833 0.000000
0.951260 0.373993 0.000000
0.956612 0.404828 0.000000
0.961969 0.430701 0.000000
0.967543 0.452536 0.000000
0.973401 0.468633 0.000000
0.979669 0.481053 0.000000
0.986172 0.490313 0.000000
0.992978 0.496955 0.000000
1.000000 0.499391 0.000000
0.000000 0.009376 0.000000
0.490313 0.013828 0.000000
0.717773 0.042945 0.000000
0.797268 0.075775 0.000000
0.842266 0.137803 0.000000
0.869692 0.193581 0.000000
0.887410 0.258326 0.000000
0.897436 0.327200 0.000000
0.901716 0.393883 0.000000
0.904561 0.449506 0.000000
0.905721 0.499297 0.000000
0.905454 0.543666 0.000000
0.904142 0.583104 0.000000
0.904722 0.616052 0.000000
0.907998 0.643538 0.000000
0.914496 0.667361 0.000000
0.925068 0.686735 0.000000
0.939720 0.703335 0.000000
0.957055 0.717773 0.000000
0.977541 0.727392 0.000000
1.000000 0.732591 0.000000
0.000000 0.013818 0.000000
0.481053 0.020331 0.000000
0.703335 0.060280 0.000000
0.786070 0.106008 0.000000
0.824918 0.188019 0.000000
0.851840 0.255552 0.000000
0.862922 0.336405 0.000000
0.864232 0.411236 0.000000
0.858382 0.481103 0.000000
0.853220 0.536170 0.000000
0.844942 0.587079 0.000000
0.836963 0.631350 0.000000
0.829933 0.671405 0.000000
0.829469 0.705224 0.000000
0.835121 0.733348 0.000000
0.847845 0.756042 0.000000
0.867085 0.773320 0.000000
0.893992 0.786070 0.000000
0.924225 0.797268 0.000000
0.960284 0.803335 0.000000
1.000000 0.806419 0.000000
0.000000 0.018106 0.000000
0.468633 0.026599 0.000000
0.686735 0.074932 0.000000
0.773320 0.132915 0.000000
0.804115 0.228312 0.000000
0.830703 0.304759 0.000000
0.829995 0.396863 0.000000
0.823021 0.470126 0.000000
0.805963 0.538844 0.000000
0.792193 0.592017 0.000000
0.774049 0.638533 0.000000
0.759427 0.675906 0.000000
0.745825 0.706515 0.000000
0.740409 0.732588 0.000000
0.741546 0.756684 0.000000
0.751611 0.780670 0.000000
0.771688 0.804115 0.000000
0.811981 0.824918 0.000000
0.862197 0.842266 0.000000
0.926493 0.852743 0.000000
1.000000 0.856164 0.000000
0.000000 0.022197 0.000000
0.452536 0.032457 0.000000
0.667361 0.085504 0.000000
0.756042 0.152155 0.000000
0.780670 0.248389 0.000000
0.805987 0.331429 0.000000
0.796337 0.418072 0.000000
0.782991 0.489185 0.000000
0.759155 0.551226 0.000000
0.737380 0.601233 0.000000
0.711458 0.644206 0.000000
0.686334 0.681547 0.000000
0.663218 0.715077 0.000000
0.652632 0.747668 0.000000
0.653450 0.777941 0.000000
0.668571 0.805987 0.000000
0.695241 0.830703 0.000000
0.744448 0.851840 0.000000
0.806419 0.869692 0.000000
0.893825 0.880096 0.000000
1.000000 0.884113 0.000000
0.000000 0.026453 0.000000
0.430701 0.038031 0.000000
0.643538 0.092002 0.000000
0.733348 0.164879 0.000000
0.756684 0.258454 0.000000
0.777941 0.346550 0.000000
0.761557 0.426099 0.000000
0.742760 0.494828 0.000000
0.711869 0.551269 0.000000
0.684305 0.597611 0.000000
0.652092 0.636013 0.000000
0.623168 0.669113 0.000000
0.596735 0.698269 0.000000
0.580928 0.729654 0.000000
0.573901 0.761557 0.000000
0.581928 0.796337 0.000000
0.603137 0.829995 0.000000
0.663595 0.862922 0.000000
0.741674 0.887410 0.000000
0.861558 0.900686 0.000000
1.000000 0.905348 0.000000
0.000000 0.031030 0.000000
0.404828 0.043388 0.000000
0.616052 0.095278 0.000000
0.705224 0.170531 0.000000
0.732588 0.259591 0.000000
0.747668 0.347368 0.000000
0.729654 0.419072 0.000000
0.706052 0.484728 0.000000
0.671640 0.534873 0.000000
0.639409 0.577635 0.000000
0.602967 0.611605 0.000000
0.568129 0.642188 0.000000
0.535819 0.671076 0.000000
0.515272 0.706052 0.000000
0.505172 0.742760 0.000000
0.510815 0.782991 0.000000
0.529874 0.823021 0.000000
0.588764 0.864232 0.000000
0.672800 0.897436 0.000000
0.820880 0.914215 0.000000
1.000000 0.921051 0.000000
0.000000 0.036117 0.000000
0.373993 0.048740 0.000000
0.583104 0.095858 0.000000
0.671405 0.170067 0.000000
0.706515 0.254175 0.000000
0.715077 0.336782 0.000000
0.698269 0.403265 0.000000
0.671076 0.464181 0.000000
0.634255 0.510373 0.000000
0.598401 0.549267 0.000000
0.559166 0.578764 0.000000
0.523451 0.606964 0.000000
0.489627 0.634255 0.000000
0.465127 0.671640 0.000000
0.448731 0.711869 0.000000
0.448774 0.759155 0.000000
0.461156 0.805963 0.000000
0.518897 0.858382 0.000000
0.606117 0.901716 0.000000
0.777729 0.924484 0.000000
1.000000 0.932916 0.000000
0.000000 0.042008 0.000000
0.337833 0.054131 0.000000
0.543666 0.094546 0.000000
0.631350 0.163037 0.000000
0.675906 0.240573 0.000000
0.681547 0.313666 0.000000
0.669113 0.376832 0.000000
0.642188 0.431871 0.000000
0.606964 0.476549 0.000000
0.568694 0.512233 0.000000
0.527590 0.540486 0.000000
0.487767 0.568694 0.000000
0.450733 0.598401 0.000000
0.422365 0.639409 0.000000
0.402389 0.684305 0.000000
0.398767 0.737380 0.000000
0.407983 0.792193 0.000000
0.463830 0.853220 0.000000
0.550494 0.904561 0.000000
0.737207 0.932676 0.000000
1.000000 0.942688 0.000000
0.000000 0.049069 0.000000
0.300952 0.060309 0.000000
0.499297 0.094279 0.000000
0.587079 0.155058 0.000000
0.638533 0.225951 0.000000
0.644206 0.288542 0.000000
0.636013 0.347908 0.000000
0.611605 0.397033 0.000000
0.578764 0.440834 0.000000
0.540486 0.472410 0.000000
0.500000 0.500000 0.000000
0.459514 0.527590 0.000000
0.421236 0.559166 0.000000
0.388395 0.602967 0.000000
0.363987 0.652092 0.000000
0.355794 0.711458 0.000000
0.361467 0.774049 0.000000
0.412921 0.844942 0.000000
0.500703 0.905721 0.000000
0.699048 0.939691 0.000000
1.000000 0.950931 0.000000
0.000000 0.057312 0.000000
0.262793 0.067324 0.000000
0.449506 0.095439 0.000000
0.536170 0.146780 0.000000
0.592017 0.207807 0.000000
0.601233 0.262620 0.000000
0.597611 0.315695 0.000000
0.577635 0.360591 0.000000
0.549267 0.401599 0.000000
0.512233 0.431306 0.000000
0.472410 0.459514 0.000000
0.431306 0.487767 0.000000
0.393036 0.523451 0.000000
0.357812 0.568129 0.000000
0.330887 0.623168 0.000000
0.318453 0.686334 0.000000
0.324094 0.759427 0.000000
0.368650 0.836963 0.000000
0.456334 0.905454 0.000000
0.662167 0.945869 0.000000
1.000000 0.957992 0.000000
0.000000 0.067084 0.000000
0.222271 0.075516 0.000000
0.393883 0.098284 0.000000
0.481103 0.141618 0.000000
0.538844 0.194037 0.000000
0.551226 0.240845 0.000000
0.551269 0.288131 0.000000
0.534873 0.328360 0.000000
0.510373 0.365745 0.000000
0.476549 0.393036 0.000000
0.440834 0.421236 0.000000
0.401599 0.450733 0.000000
0.365745 0.489627 0.000000
0.328924 0.535819 0.000000
0.301731 0.596735 0.000000
0.284923 0.663218 0.000000
0.293485 0.745825 0.000000
0.328595 0.829933 0.000000
0.416896 0.904142 0.000000
0.626007 0.951260 0.000000
1.000000 0.963883 0.000000
0.000000 0.078949 0.000000
0.179120 0.085785 0.000000
0.327200 0.102564 0.000000
0.411236 0.135768 0.000000
0.470126 0.176979 0.000000
0.489185 0.217009 0.000000
0.494828 0.257240 0.000000
0.484728 0.293948 0.000000
0.464181 0.328924 0.000000
0.431871 0.357812 0.000000
0.397033 0.388395 0.000000
0.360591 0.422365 0.000000
0.328360 0.465127 0.000000
0.293948 0.515272 0.000000
0.270346 0.580928 0.000000
0.252332 0.652632 0.000000
0.267412 0.740409 0.000000
0.294776 0.829469 0.000000
0.383948 0.904722 0.000000
0.595172 0.956612 0.000000
1.000000 0.968970 0.000000
0.000000 0.094652 0.000000
0.138442 0.099314 0.000000
0.258326 0.112590 0.000000
0.336405 0.137078 0.000000
0.396863 0.170005 0.000000
0.418072 0.203663 0.000000
0.426099 0.238443 0.000000
0.419072 0.270346 0.000000
0.403265 0.301731 0.000000
0.376832 0.330887 0.000000
0.347908 0.363987 0.000000
0.315695 0.402389 0.000000
0.288131 0.448731 0.000000
0.257240 0.505172 0.000000
0.238443 0.573901 0.000000
0.222059 0.653450 0.000000
0.243316 0.741546 0.000000
0.266652 0.835121 0.000000
0.356462 0.907998 0.000000
0.569299 0.961969 0.000000
1.000000 0.973547 0.000000
0.000000 0.115887 0.000000
0.106175 0.119904 0.000000
0.193581 0.130308 0.000000
0.255552 0.148160 0.000000
0.304759 0.169297 0.000000
0.331429 0.194013 0.000000
0.346550 0.222059 0.000000
0.347368 0.252332 0.000000
0.336782 0.284923 0.000000
0.313666 0.318453 0.000000
0.288542 0.355794 0.000000
0.262620 0.398767 0.000000
0.240845 0.448774 0.000000
0.217009 0.510815 0.000000
0.203663 0.581928 0.000000
0.194013 0.668571 0.000000
0.219330 0.751611 0.000000
0.243958 0.847845 0.000000
0.332639 0.914496 0.000000
0.547464 0.967543 0.000000
1.000000 0.977803 0.000000
0.000000 0.143836 0.000000
0.073507 0.147257 0.000000
0.137803 0.157734 0.000000
0.188019 0.175082 0.000000
0.228312 0.195885 0.000000
0.248389 0.219330 0.000000
0.258454 0.243316 0.000000
0.259591 0.267412 0.000000
0.254175 0.293485 0.000000
0.240573 0.324094 0.000000
0.225951 0.361467 0.000000
0.207807 0.407983 0.000000
0.194037 0.461156 0.000000
0.176979 0.529874 0.000000
0.170005 0.603137 0.000000
0.169297 0.695241 0.000000
0.195885 0.771688 0.000000
0.226680 0.867085 0.000000
0.313265 0.925068 0.000000
0.531367 0.973401 0.000000
1.000000 0.981894 0.000000
0.000000 0.193581 0.000000
0.039716 0.196665 0.000000
0.075775 0.202732 0.000000
0.106008 0.213930 0.000000
0.132915 0.226680 0.000000
0.152155 0.243958 0.000000
0.164879 0.266652 0.000000
0.170531 0.294776 0.000000
0.170067 0.328595 0.000000
[...]
POINT_DATA 2205 
VECTORS pos float 
0.000000 0.000000 0.000000
0.499391 0.000000 0.000000
0.732591 0.000000 0.000000
0.806419 0.000000 0.000000
0.856164 0.000000 0.000000
0.884113 0.000000 0.000000
0.905348 0.000000 0.000000
0.921051 0.000000 0.000000
0.932916 0.000000 0.000000
0.942688 0.000000 0.000000
0.950931 0.000000 0.000000
0.957992 0.000000 0.000000
0.963883 0.000000 0.000000
0.968970 0.000000 0.000000
0.973547 0.000000 0.000000
0.977803 0.000000 0.000000
0.981894 0.000000 0.000000
0.986182 0.000000 0.000000
0.990624 0.000000 0.000000
0.995254 0.000000 0.000000
1.000000 0.000000 0.000000
0.000000 0.004746 0.000000
0.496955 0.007022 0.000000
0.727392 0.022459 0.000000
0.803335 0.039716 0.000000
0.852743 0.073507 0.000000
0.880096 0.106175 0.000000
0.900686 0.138442 0.000000
0.914215 0.179120 0.000000
0.924484 0.222271 0.000000
0.932676 0.262793 0.000000
0.939691 0.300952 0.000000
0.945869 0.337833 0.000000
0.951260 0.373993 0.000000
0.956612 0.404828 0.000000
0.961969 0.430701 0.000000
0.967543 0.452536 0.000000
0.973401 0.468633 0.000000
0.979669 0.481053 0.000000
0.986172 0.490313 0.000000
0.992978 0.496955 0.000000
1.000000 0.499391 0.000000
0.000000 0.009376 0.000000
0.490313 0.013828 0.000000
0.717773 0.042945 0.000000
0.797268 0.075775 0.000000
0.842266 0.137803 0.000000
0.869692 0.193581 0.000000
0.887410 0.258326 0.000000
0.897436 0.327200 0.000000
0.901716 0.393883 0.000000
0.904561 0.449506 0.000000
0.905721 0.499297 0.000000
0.905454 0.543666 0.000000
0.904142 0.583104 0.000000
0.904722 0.616052 0.000000
0.907998 0.643538 0.000000
0.914496 0.667361 0.000000
0.925068 0.686735 0.000000
0.939720 0.703335 0.000000
0.957055 0.717773 0.000000
0.977541 0.727392 0.000000
1.000000 0.732591 0.000000
0.000000 0.013818 0.000000
0.481053 0.020331 0.000000
0.703335 0.060280 0.000000
0.786070 0.106008 0.000000
0.824918 0.188019 0.000000
0.851840 0.255552 0.000000
0.862922 0.336405 0.000000
0.864232 0.411236 0.000000
0.858382 0.481103 0.000000
0.853220 0.536170 0.000000
0.844942 0.587079 0.000000
0.836963 0.631350 0.000000
0.829933 0.671405 0.000000
0.829469 0.705224 0.000000
0.835121 0.733348 0.000000
0.847845 0.756042 0.000000
0.867085 0.773320 0.000000
0.893992 0.786070 0.000000
0.924225 0.797268 0.000000
0.960284 0.803335 0.000000
1.000000 0.806419 0.000000
0.000000 0.018106 0.000000
0.468633 0.026599 0.000000
0.686735 0.074932 0.000000
0.773320 0.132915 0.000000
0.804115 0.228312 0.000000
0.830703 0.304759 0.000000
0.829995 0.396863 0.000000
0.823021 0.470126 0.000000
0.805963 0.538844 0.000000
0.792193 0.592017 0.000000
0.774049 0.638533 0.000000
0.759427 0.675906 0.000000
0.745825 0.706515 0.000000
0.740409 0.732588 0.000000
0.741546 0.756684 0.000000
0.751611 0.780670 0.000000
0.771688 0.804115 0.000000
0.811981 0.824918 0.000000
0.862197 0.842266 0.000000
0.926493 0.852743 0.000000
1.000000 0.856164 0.000000
0.000000 0.022197 0.000000
0.452536 0.032457 0.000000
0.667361 0.085504 0.000000
0.756042 0.152155 0.000000
0.780670 0.248389 0.000000
0.805987 0.331429 0.000000
0.796337 0.418072 0.000000
0.782991 0.489185 0.000000
0.759155 0.551226 0.000000
0.737380 0.601233 0.000000
0.711458 0.644206 0.000000
0.686334 0.681547 0.000000
0.663218 0.715077 0.000000
0.652632 0.747668 0.000000
0.653450 0.777941 0.000000
0.668571 0.805987 0.000000
0.695241 0.830703 0.000000
0.744448 0.851840 0.000000
0.806419 0.869692 0.000000
0.893825 0.880096 0.000000
1.000000 0.884113 0.000000
0.000000 0.026453 0.000000
0.430701 0.038031 0.000000
0.643538 0.092002 0.000000
0.733348 0.164879 0.000000
0.756684 0.258454 0.000000
0.777941 0.346550 0.000000
0.761557 0.426099 0.000000
0.742760 0.494828 0.000000
0.711869 0.551269 0.000000
0.684305 0.597611 0.000000
0.652092 0.636013 0.000000
0.623168 0.669113 0.000000
0.596735 0.698269 0.000000
0.580928 0.729654 0.000000
0.573901 0.761557 0.000000
0.581928 0.796337 0.000000
0.603137 0.829995 0.000000
0.663595 0.862922 0.000000
0.741674 0.887410 0.000000
0.861558 0.900686 0.000000
1.000000 0.905348 0.000000
0.000000 0.031030 0.000000
0.404828 0.043388 0.000000
0.616052 0.095278 0.000000
0.705224 0.170531 0.000000
0.732588 0.259591 0.000000
0.747668 0.347368 0.000000
0.729654 0.419072 0.000000
0.706052 0.484728 0.000000
0.671640 0.534873 0.000000
0.639409 0.577635 0.000000
0.602967 0.611605 0.000000
0.568129 0.642188 0.000000
0.535819 0.671076 0.000000
0.515272 0.706052 0.000000
0.505172 0.742760 0.000000
0.510815 0.782991 0.000000
0.529874 0.823021 0.000000
0.588764 0.864232 0.000000
0.672800 0.897436 0.000000
0.820880 0.914215 0.000000
1.000000 0.921051 0.000000
0.000000 0.036117 0.000000
0.373993 0.048740 0.000000
0.583104 0.095858 0.000000
0.671405 0.170067 0.000000
0.706515 0.254175 0.000000
0.715077 0.336782 0.000000
0.698269 0.403265 0.000000
0.671076 0.464181 0.000000
0.634255 0.510373 0.000000
0.598401 0.549267 0.000000
0.559166 0.578764 0.000000
0.523451 0.606964 0.000000
0.489627 0.634255 0.000000
0.465127 0.671640 0.000000
0.448731 0.711869 0.000000
0.448774 0.759155 0.000000
0.461156 0.805963 0.000000
0.518897 0.858382 0.000000
0.606117 0.901716 0.000000
0.777729 0.924484 0.000000
1.000000 0.932916 0.000000
0.000000 0.042008 0.000000
0.337833 0.054131 0.000000
0.543666 0.094546 0.000000
0.631350 0.163037 0.000000
0.675906 0.240573 0.000000
0.681547 0.313666 0.000000
0.669113 0.376832 0.000000
0.642188 0.431871 0.000000
0.606964 0.476549 0.000000
0.568694 0.512233 0.000000
0.527590 0.540486 0.000000
0.487767 0.568694 0.000000
0.450733 0.598401 0.000000
0.422365 0.639409 0.000000
0.402389 0.684305 0.000000
0.398767 0.737380 0.000000
0.407983 0.792193 0.000000
0.463830 0.853220 0.000000
0.550494 0.904561 0.000000
0.737207 0.932676 0.000000
1.000000 0.942688 0.000000
0.000000 0.049069 0.000000
0.300952 0.060309 0.000000
0.499297 0.094279 0.000000
0.587079 0.155058 0.000000
0.638533 0.225951 0.000000
0.644206 0.288542 0.000000
0.636013 0.347908 0.000000
0.611605 0.397033 0.000000
0.578764 0.440834 0.000000
0.540486 0.472410 0.000000
0.500000 0.500000 0.000000
0.459514 0.527590 0.000000
0.421236 0.559166 0.000000
0.388395 0.602967 0.000000
0.363987 0.652092 0.000000
0.355794 0.711458 0.000000
0.361467 0.774049 0.000000
0.412921 0.844942 0.000000
0.500703 0.905721 0.000000
0.699048 0.939691 0.000000
1.000000 0.950931 0.000000
0.000000 0.057312 0.000000
0.262793 0.067324 0.000000
0.449506 0.095439 0.000000
0.536170 0.146780 0.000000
0.592017 0.207807 0.000000
0.601233 0.262620 0.000000
0.597611 0.315695 0.000000
0.577635 0.360591 0.000000
0.549267 0.401599 0.000000
0.512233 0.431306 0.000000
0.472410 0.459514 0.000000
0.431306 0.487767 0.000000
0.393036 0.523451 0.000000
0.357812 0.568129 0.000000
0.330887 0.623168 0.000000
0.318453 0.686334 0.000000
0.324094 0.759427 0.000000
0.368650 0.836963 0.000000
0.456334 0.905454 0.000000
0.662167 0.945869 0.000000
1.000000 0.957992 0.000000
0.000000 0.067084 0.000000
0.222271 0.075516 0.000000
0.393883 0.098284 0.000000
0.481103 0.141618 0.000000
0.538844 0.194037 0.000000
0.551226 0.240845 0.000000
0.551269 0.288131 0.000000
0.534873 0.328360 0.000000
0.510373 0.365745 0.000000
0.476549 0.393036 0.000000
0.440834 0.421236 0.000000
0.401599 0.450733 0.000000
0.365745 0.489627 0.000000
0.328924 0.535819 0.000000
0.301731 0.596735 0.000000
0.284923 0.663218 0.000000
0.293485 0.745825 0.000000
0.328595 0.829933 0.000000
0.416896 0.904142 0.000000
0.626007 0.951260 0.000000
1.000000 0.963883 0.000000
0.000000 0.078949 0.000000
0.179120 0.085785 0.000000
0.327200 0.102564 0.000000
0.411236 0.135768 0.000000
0.470126 0.176979 0.000000
0.489185 0.217009 0.000000
0.494828 0.257240 0.000000
0.484728 0.293948 0.000000
0.464181 0.328924 0.000000
0.431871 0.357812 0.000000
0.397033 0.388395 0.000000
0.360591 0.422365 0.000000
0.328360 0.465127 0.000000
0.293948 0.515272 0.000000
0.270346 0.580928 0.000000
0.252332 0.652632 0.000000
0.267412 0.740409 0.000000
0.294776 0.829469 0.000000
0.383948 0.904722 0.000000
0.595172 0.956612 0.000000
1.000000 0.968970 0.000000
0.000000 0.094652 0.000000
0.138442 0.099314 0.000000
0.258326 0.112590 0.000000
0.336405 0.137078 0.000000
0.396863 0.170005 0.000000
0.418072 0.203663 0.000000
0.426099 0.238443 0.000000
0.419072 0.270346 0.000000
0.403265 0.301731 0.000000
0.376832 0.330887 0.000000
0.347908 0.363987 0.000000
0.315695 0.402389 0.000000
0.288131 0.448731 0.000000
0.257240 0.505172 0.000000
0.238443 0.573901 0.000000
0.222059 0.653450 0.000000
0.243316 0.741546 0.000000
0.266652 0.835121 0.000000
0.356462 0.907998 0.000000
0.569299 0.961969 0.000000
1.000000 0.973547 0.000000
0.000000 0.115887 0.000000
0.106175 0.119904 0.000000
0.193581 0.130308 0.000000
0.255552 0.148160 0.000000
0.304759 0.169297 0.000000
0.331429 0.194013 0.000000
0.346550 0.222059 0.000000
0.347368 0.252332 0.000000
0.336782 0.284923 0.000000
0.313666 0.318453 0.000000
0.288542 0.355794 0.000000
0.262620 0.398767 0.000000
0.240845 0.448774 0.000000
0.217009 0.510815 0.000000
0.203663 0.581928 0.000000
0.194013 0.668571 0.000000
0.219330 0.751611 0.000000
0.243958 0.847845 0.000000
0.332639 0.914496 0.000000
0.547464 0.967543 0.000000
1.000000 0.977803 0.000000
0.000000 0.143836 0.000000
0.073507 0.147257 0.000000
0.137803 0.157734 0.000000
0.188019 0.175082 0.000000
0.228312 0.195885 0.000000
0.248389 0.219330 0.000000
0.258454 0.243316 0.000000
0.259591 0.267412 0.000000
0.254175 0.293485 0.000000
0.240573 0.324094 0.000000
0.225951 0.361467 0.000000
0.207807 0.407983 0.000000
0.194037 0.461156 0.000000
0.176979 0.529874 0.000000
0.170005 0.603137 0.000000
0.169297 0.695241 0.000000
0.195885 0.771688 0.000000
0.226680 0.867085 0.000000
0.313265 0.925068 0.000000
0.531367 0.973401 0.000000
1.000000 0.981894 0.000000
0.000000 0.193581 0.000000
0.039716 0.196665 0.000000
0.075775 0.202732 0.000000
0.106008 0.213930 0.000000
0.132915 0.226680 0.000000
0.152155 0.243958 0.000000
0.164879 0.266652 0.000000
0.170531 0.294776 0.000000
0.170067 0.328595 0.000000
0.163037 0.368650 0.000000
0.155058 0.412921 0.000000
0.146780 0.463830 0.000000
0.141618 0.518897 0.000000
0.135768 0.588764 0.000000
0.137078 0.663595 0.000000
0.148160 0.744448 0.000000
0.175082 0.811981 0.000000
0.213930 0.893992 0.000000
0.296665 0.939720 0.000000
0.518947 0.979669 0.000000
1.000000 0.986182 0.000000
0.000000 0.267409 0.000000
0.022459 0.272608 0.000000
0.042945 0.282227 0.000000
0.060280 0.296665 0.000000
0.074932 0.313265 0.000000
0.085504 0.332639 0.000000
0.092002 0.356462 0.000000
0.095278 0.383948 0.000000
0.095858 0.416896 0.000000
0.094546 0.456334 0.000000
0.094279 0.500703 0.000000
0.095439 0.550494 0.000000
0.098284 0.606117 0.000000
0.102564 0.672800 0.000000
0.112590 0.741674 0.000000
0.130308 0.806419 0.000000
0.157734 0.862197 0.000000
0.202732 0.924225 0.000000
0.282227 0.957055 0.000000
0.509687 0.986172 0.000000
1.000000 0.990624 0.000000
0.000000 0.500609 0.000000
0.007022 0.503045 0.000000
0.013828 0.509687 0.000000
0.020331 0.518947 0.000000
0.026599 0.531367 0.000000
0.032457 0.547464 0.000000
0.038031 0.569299 0.000000
0.043388 0.595172 0.000000
0.048740 0.626007 0.000000
0.054131 0.662167 0.000000
0.060309 0.699048 0.000000
0.067324 0.737207 0.000000
0.075516 0.777729 0.000000
0.085785 0.820880 0.000000
0.099314 0.861558 0.000000
0.119904 0.893825 0.000000
0.147257 0.926493 0.000000
0.196665 0.960284 0.000000
0.272608 0.977541 0.000000
0.503045 0.992978 0.000000
1.000000 0.995254 0.000000
0.000000 1.000000 0.000000
0.004746 1.000000 0.000000
0.009376 1.000000 0.000000
0.013818 1.000000 0.000000
0.018106 1.000000 0.000000
0.022197 1.000000 0.000000
0.026453 1.000000 0.000000
0.031030 1.000000 0.000000
0.036117 1.000000 0.000000
0.042008 1.000000 0.000000
0.049069 1.000000 0.000000
0.057312 1.000000 0.000000
0.067084 1.000000 0.000000
0.078949 1.000000 0.000000
0.094652 1.000000 0.000000
0.115887 1.000000 0.000000
0.143836 1.000000 0.000000
0.193581 1.000000 0.000000
0.267409 1.000000 0.000000
0.500609 1.000000 0.000000
1.000000 1.000000 0.000000
0.000000 0.000000 0.082500
0.499391 0.000000 0.082500
0.732591 0.000000 0.082500
0.806419 0.000000 0.082500
0.856164 0.000000 0.082500
0.884113 0.000000 0.082500
0.905348 0.000000 0.082500
0.921051 0.000000 0.082500
0.932916 0.000000 0.082500
0.942688 0.000000 0.082500
0.950931 0.000000 0.082500
0.957992 0.000000 0.082500
0.963883 0.000000 0.082500
0.968970 0.000000 0.082500
0.973547 0.000000 0.082500
0.977803 0.000000 0.082500
0.981894 0.000000 0.082500
0.986182 0.000000 0.082500
0.990624 0.000000 0.082500
0.995254 0.000000 0.082500
1.000000 0.000000 0.082500
0.000000 0.004746 0.082500
0.496955 0.007022 0.082500
0.727392 0.022459 0.082500
0.803335 0.039716 0.082500
0.852743 0.073507 0.082500
0.880096 0.106175 0.082500
0.900686 0.138442 0.082500
0.914215 0.179120 0.082500
0.924484 0.222271 0.082500
0.932676 0.262793 0.082500
0.939691 0.300952 0.082500
0.945869 0.337833 0.082500
0.951260 0.373993 0.082500
0.956612 0.404828 0.082500
0.961969 0.430701 0.082500
0.967543 0.452536 0.082500
0.973401 0.468633 0.082500
0.979669 0.481053 0.082500
0.986172 0.490313 0.082500
0.992978 0.496955 0.082500
1.000000 0.499391 0.082500
0.000000 0.009376 0.082500
0.490313 0.013828 0.082500
0.717773 0.042945 0.082500
0.797268 0.075775 0.082500
0.842266 0.137803 0.082500
0.869692 0.193581 0.082500
0.887410 0.258326 0.082500
0.897436 0.327200 0.082500
0.901716 0.393883 0.082500
0.904561 0.449506 0.082500
0.905721 0.499297 0.082500
0.905454 0.543666 0.082500
0.904142 0.583104 0.082500
0.904722 0.616052 0.082500
0.907998 0.643538 0.082500
0.914496 0.667361 0.082500
0.925068 0.686735 0.082500
0.939720 0.703335 0.082500
0.957055 0.717773 0.082500
0.977541 0.727392 0.082500
1.000000 0.732591 0.082500
0.000000 0.013818 0.082500
0.481053 0.020331 0.082500
0.703335 0.060280 0.082500
0.786070 0.106008 0.082500
0.824918 0.188019 0.082500
0.851840 0.255552 0.082500
0.862922 0.336405 0.082500
0.864232 0.411236 0.082500
0.858382 0.481103 0.082500
0.853220 0.536170 0.082500
0.844942 0.587079 0.082500
0.836963 0.631350 0.082500
0.829933 0.671405 0.082500
0.829469 0.705224 0.082500
0.835121 0.733348 0.082500
0.847845 0.756042 0.082500
0.867085 0.773320 0.082500
0.893992 0.786070 0.082500
0.924225 0.797268 0.082500
0.960284 0.803335 0.082500
1.000000 0.806419 0.082500
0.000000 0.018106 0.082500
0.468633 0.026599 0.082500
0.686735 0.074932 0.082500
0.773320 0.132915 0.082500
0.804115 0.228312 0.082500
0.830703 0.304759 0.082500
0.829995 0.396863 0.082500
0.823021 0.470126 0.082500
0.805963 0.538844 0.082500
0.792193 0.592017 0.082500
0.774049 0.638533 0.082500
0.759427 0.675906 0.082500
0.745825 0.706515 0.082500
0.740409 0.732588 0.082500
0.741546 0.756684 0.082500
0.751611 0.780670 0.082500
0.771688 0.804115 0.082500
0.811981 0.824918 0.082500
0.862197 0.842266 0.082500
0.926493 0.852743 0.082500
1.000000 0.856164 0.082500
0.000000 0.022197 0.082500
0.452536 0.032457 0.082500
0.667361 0.085504 0.082500
0.756042 0.152155 0.082500
0.780670 0.248389 0.082500
0.805987 0.331429 0.082500
0.796337 0.418072 0.082500
0.782991 0.489185 0.082500
0.759155 0.551226 0.082500
0.737380 0.601233 0.082500
0.711458 0.644206 0.082500
0.686334 0.681547 0.082500
0.663218 0.715077 0.082500
0.652632 0.747668 0.082500
0.653450 0.777941 0.082500
0.668571 0.805987 0.082500
0.695241 0.830703 0.082500
0.744448 0.851840 0.082500
0.806419 0.869692 0.082500
0.893825 0.880096 0.082500
1.000000 0.884113 0.082500
0.000000 0.026453 0.082500
0.430701 0.038031 0.082500
0.643538 0.092002 0.082500
0.733348 0.164879 0.082500
0.756684 0.258454 0.082500
0.777941 0.346550 0.082500
0.761557 0.426099 0.082500
0.742760 0.494828 0.082500
0.711869 0.551269 0.082500
0.684305 0.597611 0.082500
0.652092 0.636013 0.082500
0.623168 0.669113 0.082500
0.596735 0.698269 0.082500
0.580928 0.729654 0.082500
0.573901 0.761557 0.082500
0.581928 0.796337 0.082500
0.603137 0.829995 0.082500
0.663595 0.862922 0.082500
0.741674 0.887410 0.082500
0.861558 0.900686 0.082500
1.000000 0.905348 0.082500
0.000000 0.031030 0.082500
0.404828 0.043388 0.082500
0.616052 0.095278 0.082500
0.705224 0.170531 0.082500
0.732588 0.259591 0.082500
0.747668 0.347368 0.082500
0.729654 0.419072 0.082500
0.706052 0.484728 0.082500
0.671640 0.534873 0.082500
0.639409 0.577635 0.082500
0.602967 0.611605 0.082500
0.568129 0.642188 0.082500
0.535819 0.671076 0.082500
0.515272 0.706052 0.082500
0.505172 0.742760 0.082500
0.510815 0.782991 0.082500
0.529874 0.823021 0.082500
0.588764 0.864232 0.082500
0.672800 0.897436 0.082500
0.820880 0.914215 0.082500
1.000000 0.921051 0.082500
0.000000 0.036117 0.082500
0.373993 0.048740 0.082500
0.583104 0.095858 0.082500
0.671405 0.170067 0.082500
0.706515 0.254175 0.082500
0.715077 0.336782 0.082500
0.698269 0.403265 0.082500
0.671076 0.464181 0.082500
0.634255 0.510373 0.082500
0.598401 0.549267 0.082500
0.559166 0.578764 0.082500
0.523451 0.606964 0.082500
0.489627 0.634255 0.082500
0.465127 0.671640 0.082500
0.448731 0.711869 0.082500
0.448774 0.759155 0.082500
0.461156 0.805963 0.082500
0.518897 0.858382 0.082500
0.606117 0.901716 0.082500
0.777729 0.924484 0.082500
1.000000 0.932916 0.082500
0.000000 0.042008 0.082500
0.337833 0.054131 0.082500
0.543666 0.094546 0.082500
0.631350 0.163037 0.082500
0.675906 0.240573 0.082500
0.681547 0.313666 0.082500
0.669113 0.376832 0.082500
0.642188 0.431871 0.082500
0.606964 0.476549 0.082500
0.568694 0.512233 0.082500
0.527590 0.540486 0.082500
0.487767 0.568694 0.082500
0.450733 0.598401 0.082500
0.422365 0.639409 0.082500
0.402389 0.684305 0.082500
0.398767 0.737380 0.082500
0.407983 0.792193 0.082500
0.463830 0.853220 0.082500
0.550494 0.904561 0.082500
0.737207 0.932676 0.082500
1.000000 0.942688 0.082500
0.000000 0.049069 0.082500
0.300952 0.060309 0.082500
0.499297 0.094279 0.082500
0.587079 0.155058 0.082500
0.638533 0.225951 0.082500
0.644206 0.288542 0.082500
0.636013 0.347908 0.082500
0.611605 0.397033 0.082500
0.578764 0.440834 0.082500
0.540486 0.472410 0.082500
0.500000 0.500000 0.082500
0.459514 0.527590 0.082500
0.421236 0.559166 0.082500
0.388395 0.602967 0.082500
0.363987 0.652092 0.082500
0.355794 0.711458 0.082500
0.361467 0.774049 0.082500
0.412921 0.844942 0.082500
0.500703 0.905721 0.082500
0.699048 0.939691 0.082500
1.000000 0.950931 0.082500
0.000000 0.057312 0.082500
0.262793 0.067324 0.082500
0.449506 0.095439 0.082500
0.536170 0.146780 0.082500
0.592017 0.207807 0.082500
0.601233 0.262620 0.082500
0.597611 0.315695 0.082500
0.577635 0.360591 0.082500
0.549267 0.401599 0.082500
0.512233 0.431306 0.082500
0.472410 0.459514 0.082500
0.431306 0.487767 0.082500
0.393036 0.523451 0.082500
0.357812 0.568129 0.082500
0.330887 0.623168 0.082500
0.318453 0.686334 0.082500
0.324094 0.759427 0.082500
0.368650 0.836963 0.082500
0.456334 0.905454 0.082500
0.662167 0.945869 0.082500
1.000000 0.957992 0.082500
0.000000 0.067084 0.082500
0.222271 0.075516 0.082500
0.393883 0.098284 0.082500
0.481103 0.141618 0.082500
0.538844 0.194037 0.082500
0.551226 0.240845 0.082500
0.551269 0.288131 0.082500
0.534873 0.328360 0.082500
0.510373 0.365745 0.082500
0.476549 0.393036 0.082500
0.440834 0.421236 0.082500
0.401599 0.450733 0.082500
0.365745 0.489627 0.082500
0.328924 0.535819 0.082500
0.301731 0.596735 0.082500
0.284923 0.663218 0.082500
0.293485 0.745825 0.082500
0.328595 0.829933 0.082500
0.416896 0.904142 0.082500
0.626007 0.951260 0.082500
1.000000 0.963883 0.082500
0.000000 0.078949 0.082500
0.179120 0.085785 0.082500
0.327200 0.102564 0.082500
0.411236 0.135768 0.082500
0.470126 0.176979 0.082500
0.489185 0.217009 0.082500
0.494828 0.257240 0.082500
0.484728 0.293948 0.082500
0.464181 0.328924 0.082500
0.431871 0.357812 0.082500
0.397033 0.388395 0.082500
0.360591 0.422365 0.082500
0.328360 0.465127 0.082500
0.293948 0.515272 0.082500
0.270346 0.580928 0.082500
0.252332 0.652632 0.082500
0.267412 0.740409 0.082500
0.294776 0.829469 0.082500
0.383948 0.904722 0.082500
0.595172 0.956612 0.082500
1.000000 0.968970 0.082500
0.000000 0.094652 0.082500
0.138442 0.099314 0.082500
0.258326 0.112590 0.082500
0.336405 0.137078 0.082500