# vtk DataFile Version 2.0
Mesh for Fierro
ASCII 
DATASET UNSTRUCTURED_GRID

POINTS 2205 float
0.000000 0.000000 0.000000
0.165548 0.000000 0.000000
0.312934 0.000000 0.000000
0.434756 0.000000 0.000000
0.529816 0.000000 0.000000
0.604979 0.000000 0.000000
0.665952 0.000000 0.000000
0.713472 0.000000 0.000000
0.753716 0.000000 0.000000
0.787542 0.000000 0.000000
0.817553 0.000000 0.000000
0.843665 0.000000 0.000000
0.866622 0.000000 0.000000
0.887433 0.000000 0.000000
0.905855 0.000000 0.000000
0.923830 0.000000 0.000000
0.939808 0.000000 0.000000
0.955830 0.000000 0.000000
0.970938 0.000000 0.000000
0.985267 0.000000 0.000000
1.000000 0.000000 0.000000
0.000000 0.014733 0.000000
0.164269 0.015810 0.000000
0.310625 0.018516 0.000000
0.432355 0.023702 0.000000
0.527580 0.029498 0.000000
0.602121 0.037748 0.000000
0.662518 0.047023 0.000000
0.709551 0.056691 0.000000
0.749309 0.067548 0.000000
0.782460 0.078475 0.000000
0.812201 0.089787 0.000000
0.837529 0.101226 0.000000
0.860380 0.113203 0.000000
0.880861 0.124278 0.000000
0.899923 0.134076 0.000000
0.918126 0.142999 0.000000
0.935358 0.150129 0.000000
0.952044 0.156247 0.000000
0.968300 0.160970 0.000000
0.984190 0.164269 0.000000
1.000000 0.165548 0.000000
0.000000 0.029062 0.000000
0.160970 0.031700 0.000000
0.304774 0.037126 0.000000
0.425476 0.047122 0.000000
0.520220 0.058437 0.000000
0.593693 0.074446 0.000000
0.652969 0.092370 0.000000
0.699187 0.110966 0.000000
0.737681 0.131539 0.000000
0.770715 0.152386 0.000000
0.799231 0.173729 0.000000
0.824802 0.195347 0.000000
0.847364 0.217694 0.000000
0.868402 0.238186 0.000000
0.888326 0.256325 0.000000
0.907442 0.272351 0.000000
0.926288 0.285436 0.000000
0.944645 0.296540 0.000000
0.962874 0.304774 0.000000
0.981484 0.310625 0.000000
1.000000 0.312934 0.000000
0.000000 0.044170 0.000000
0.156247 0.047956 0.000000
0.296540 0.055355 0.000000
0.414850 0.069796 0.000000
0.508677 0.086123 0.000000
0.579911 0.109166 0.000000
0.636969 0.134708 0.000000
0.681611 0.161306 0.000000
0.717909 0.190366 0.000000
0.749893 0.219234 0.000000
0.776959 0.249113 0.000000
0.801090 0.278716 0.000000
0.822911 0.308565 0.000000
0.844101 0.336142 0.000000
0.864882 0.360517 0.000000
0.886348 0.382043 0.000000
0.907971 0.400051 0.000000
0.930204 0.414850 0.000000
0.952878 0.425476 0.000000
0.976298 0.432355 0.000000
1.000000 0.434756 0.000000
0.000000 0.060192 0.000000
0.150129 0.064642 0.000000
0.285436 0.073712 0.000000
0.400051 0.092029 0.000000
0.492343 0.112710 0.000000
0.560529 0.141605 0.000000
0.615252 0.173499 0.000000
0.658281 0.206755 0.000000
0.693246 0.243122 0.000000
0.723708 0.278857 0.000000
0.749752 0.316042 0.000000
0.773082 0.351957 0.000000
0.794188 0.387786 0.000000
0.816114 0.419322 0.000000
0.838399 0.447544 0.000000
0.862382 0.471957 0.000000
0.887290 0.492343 0.000000
0.913877 0.508677 0.000000
0.941563 0.520220 0.000000
0.970502 0.527580 0.000000
1.000000 0.529816 0.000000
0.000000 0.076170 0.000000
0.142999 0.081874 0.000000
0.272351 0.092558 0.000000
0.382043 0.113652 0.000000
0.471957 0.137618 0.000000
0.536598 0.170137 0.000000
0.588684 0.206028 0.000000
0.629879 0.243516 0.000000
0.663386 0.283684 0.000000
0.691948 0.323006 0.000000
0.715671 0.363682 0.000000
0.737808 0.402847 0.000000
0.757797 0.441449 0.000000
0.779901 0.476702 0.000000
0.803511 0.508459 0.000000
0.829863 0.536598 0.000000
0.858395 0.560529 0.000000
0.890834 0.579911 0.000000
0.925554 0.593693 0.000000
0.962252 0.602121 0.000000
1.000000 0.604979 0.000000
0.000000 0.094145 0.000000
0.134076 0.100077 0.000000
0.256325 0.111674 0.000000
0.360517 0.135118 0.000000
0.447544 0.161601 0.000000
0.508459 0.196489 0.000000
0.557902 0.234932 0.000000
0.597221 0.275411 0.000000
0.629191 0.318383 0.000000
0.655863 0.360478 0.000000
0.677608 0.403480 0.000000
0.698177 0.445028 0.000000
0.717314 0.485733 0.000000
0.739950 0.523487 0.000000
0.765068 0.557902 0.000000
0.793972 0.588684 0.000000
0.826501 0.615252 0.000000
0.865292 0.636969 0.000000
0.907630 0.652969 0.000000
0.952977 0.662518 0.000000
1.000000 0.665952 0.000000
0.000000 0.112567 0.000000
0.124278 0.119139 0.000000
0.238186 0.131598 0.000000
0.336142 0.155899 0.000000
0.419322 0.183886 0.000000
0.476702 0.220099 0.000000
0.523487 0.260050 0.000000
0.560697 0.302486 0.000000
0.590899 0.347087 0.000000
0.615551 0.391052 0.000000
0.635597 0.435628 0.000000
0.655010 0.478774 0.000000
0.673836 0.520911 0.000000
0.697514 0.560697 0.000000
0.724589 0.597221 0.000000
0.756484 0.629879 0.000000
0.793245 0.658281 0.000000
0.838694 0.681611 0.000000
0.889034 0.699187 0.000000
0.943309 0.709551 0.000000
1.000000 0.713472 0.000000
0.000000 0.133378 0.000000
0.113203 0.139620 0.000000
0.217694 0.152636 0.000000
0.308565 0.177089 0.000000
0.387786 0.205812 0.000000
0.441449 0.242203 0.000000
0.485733 0.282686 0.000000
0.520911 0.326164 0.000000
0.549641 0.372044 0.000000
0.572185 0.417063 0.000000
0.590715 0.462519 0.000000
0.609255 0.506707 0.000000
0.627956 0.549641 0.000000
0.652913 0.590899 0.000000
0.681617 0.629191 0.000000
0.716316 0.663386 0.000000
0.756878 0.693246 0.000000
0.809634 0.717909 0.000000
0.868461 0.737681 0.000000
0.932452 0.749309 0.000000
1.000000 0.753716 0.000000
0.000000 0.156335 0.000000
0.101226 0.162471 0.000000
0.195347 0.175198 0.000000
0.278716 0.198910 0.000000
0.351957 0.226918 0.000000
0.402847 0.262192 0.000000
0.445028 0.301823 0.000000
0.478774 0.344990 0.000000
0.506707 0.390745 0.000000
0.527798 0.436236 0.000000
0.545737 0.482319 0.000000
0.563764 0.527798 0.000000
0.582937 0.572185 0.000000
0.608948 0.615551 0.000000
0.639522 0.655863 0.000000
0.676994 0.691948 0.000000
0.721143 0.723708 0.000000
0.780766 0.749893 0.000000
0.847614 0.770715 0.000000
0.921525 0.782460 0.000000
1.000000 0.787542 0.000000
0.000000 0.182447 0.000000
0.089787 0.187799 0.000000
0.173729 0.200769 0.000000
0.249113 0.223041 0.000000
0.316042 0.250248 0.000000
0.363682 0.284329 0.000000
0.403480 0.322392 0.000000
0.435628 0.364403 0.000000
0.462519 0.409285 0.000000
0.482319 0.454263 0.000000
0.500000 0.500000 0.000000
0.517681 0.545737 0.000000
0.537481 0.590715 0.000000
0.564372 0.635597 0.000000
0.596520 0.677608 0.000000
0.636318 0.715671 0.000000
0.683958 0.749752 0.000000
0.750887 0.776959 0.000000
0.826271 0.799231 0.000000
0.910213 0.812201 0.000000
1.000000 0.817553 0.000000
0.000000 0.212458 0.000000
0.078475 0.217540 0.000000
0.152386 0.229285 0.000000
0.219234 0.250107 0.000000
0.278857 0.276292 0.000000
0.323006 0.308052 0.000000
0.360478 0.344137 0.000000
0.391052 0.384449 0.000000
0.417063 0.427815 0.000000
0.436236 0.472202 0.000000
0.454263 0.517681 0.000000
0.472202 0.563764 0.000000
0.493293 0.609255 0.000000
0.521226 0.655010 0.000000
0.554972 0.698177 0.000000
0.597153 0.737808 0.000000
0.648043 0.773082 0.000000
0.721284 0.801090 0.000000
0.804653 0.824802 0.000000
0.898774 0.837529 0.000000
1.000000 0.843665 0.000000
0.000000 0.246284 0.000000
0.067548 0.250691 0.000000
0.131539 0.262319 0.000000
0.190366 0.282091 0.000000
0.243122 0.306754 0.000000
0.283684 0.336614 0.000000
0.318383 0.370809 0.000000
0.347087 0.409101 0.000000
0.372044 0.450359 0.000000
0.390745 0.493293 0.000000
0.409285 0.537481 0.000000
0.427815 0.582937 0.000000
0.450359 0.627956 0.000000
0.479089 0.673836 0.000000
0.514267 0.717314 0.000000
0.558551 0.757797 0.000000
0.612214 0.794188 0.000000
0.691435 0.822911 0.000000
0.782306 0.847364 0.000000
0.886797 0.860380 0.000000
1.000000 0.866622 0.000000
0.000000 0.286528 0.000000
0.056691 0.290449 0.000000
0.110966 0.300813 0.000000
0.161306 0.318389 0.000000
0.206755 0.341719 0.000000
0.243516 0.370121 0.000000
0.275411 0.402779 0.000000
0.302486 0.439303 0.000000
0.326164 0.479089 0.000000
0.344990 0.521226 0.000000
0.364403 0.564372 0.000000
0.384449 0.608948 0.000000
0.409101 0.652913 0.000000
0.439303 0.697514 0.000000
0.476513 0.739950 0.000000
0.523298 0.779901 0.000000
0.580678 0.816114 0.000000
0.663858 0.844101 0.000000
0.761814 0.868402 0.000000
0.875722 0.880861 0.000000
1.000000 0.887433 0.000000
0.000000 0.334048 0.000000
0.047023 0.337482 0.000000
0.092370 0.347031 0.000000
0.134708 0.363031 0.000000
0.173499 0.384748 0.000000
0.206028 0.411316 0.000000
0.234932 0.442098 0.000000
0.260050 0.476513 0.000000
0.282686 0.514267 0.000000
0.301823 0.554972 0.000000
0.322392 0.596520 0.000000
0.344137 0.639522 0.000000
0.370809 0.681617 0.000000
0.402779 0.724589 0.000000
0.442098 0.765068 0.000000
0.491541 0.803511 0.000000
0.552456 0.838399 0.000000
0.639483 0.864882 0.000000
0.743675 0.888326 0.000000
0.865924 0.899923 0.000000
1.000000 0.905855 0.000000
0.000000 0.395021 0.000000
0.037748 0.397879 0.000000
0.074446 0.406307 0.000000
0.109166 0.420089 0.000000
0.141605 0.439471 0.000000
0.170137 0.463402 0.000000
0.196489 0.491541 0.000000
0.220099 0.523298 0.000000
0.242203 0.558551 0.000000
0.262192 0.597153 0.000000
0.284329 0.636318 0.000000
0.308052 0.676994 0.000000
0.336614 0.716316 0.000000
0.370121 0.756484 0.000000
0.411316 0.793972 0.000000
0.463402 0.829863 0.000000
0.528043 0.862382 0.000000
0.617957 0.886348 0.000000
0.727649 0.907442 0.000000
0.857001 0.918126 0.000000
1.000000 0.923830 0.000000
0.000000 0.470184 0.000000
0.029498 0.472420 0.000000
0.058437 0.479780 0.000000
0.086123 0.491323 0.000000
0.112710 0.507657 0.000000
0.137618 0.528043 0.000000
0.161601 0.552456 0.000000
0.183886 0.580678 0.000000
0.205812 0.612214 0.000000
0.226918 0.648043 0.000000
0.250248 0.683958 0.000000
0.276292 0.721143 0.000000
0.306754 0.756878 0.000000
0.341719 0.793245 0.000000
0.384748 0.826501 0.000000
0.439471 0.858395 0.000000
0.507657 0.887290 0.000000
0.599949 0.907971 0.000000
0.714564 0.926288 0.000000
0.849871 0.935358 0.000000
1.000000 0.939808 0.000000
0.000000 0.565244 0.000000
0.023702 0.567645 0.000000
0.047122 0.574524 0.000000
0.069796 0.585150 0.000000
0.092029 0.599949 0.000000
0.113652 0.617957 0.000000
0.135118 0.639483 0.000000
0.155899 0.663858 0.000000
0.177089 0.691435 0.000000
[...]
POINT_DATA 2205 
VECTORS pos float 
0.000000 0.000000 0.000000
0.165548 0.000000 0.000000
0.312934 0.000000 0.000000
0.434756 0.000000 0.000000
0.529816 0.000000 0.000000
0.604979 0.000000 0.000000
0.665952 0.000000 0.000000
0.713472 0.000000 0.000000
0.753716 0.000000 0.000000
0.787542 0.000000 0.000000
0.817553 0.000000 0.000000
0.843665 0.000000 0.000000
0.866622 0.000000 0.000000
0.887433 0.000000 0.000000
0.905855 0.000000 0.000000
0.923830 0.000000 0.000000
0.939808 0.000000 0.000000
0.955830 0.000000 0.000000
0.970938 0.000000 0.000000
0.985267 0.000000 0.000000
1.000000 0.000000 0.000000
0.000000 0.014733 0.000000
0.164269 0.015810 0.000000
0.310625 0.018516 0.000000
0.432355 0.023702 0.000000
0.527580 0.029498 0.000000
0.602121 0.037748 0.000000
0.662518 0.047023 0.000000
0.709551 0.056691 0.000000
0.749309 0.067548 0.000000
0.782460 0.078475 0.000000
0.812201 0.089787 0.000000
0.837529 0.101226 0.000000
0.860380 0.113203 0.000000
0.880861 0.124278 0.000000
0.899923 0.134076 0.000000
0.918126 0.142999 0.000000
0.935358 0.150129 0.000000
0.952044 0.156247 0.000000
0.968300 0.160970 0.000000
0.984190 0.164269 0.000000
1.000000 0.165548 0.000000
0.000000 0.029062 0.000000
0.160970 0.031700 0.000000
0.304774 0.037126 0.000000
0.425476 0.047122 0.000000
0.520220 0.058437 0.000000
0.593693 0.074446 0.000000
0.652969 0.092370 0.000000
0.699187 0.110966 0.000000
0.737681 0.131539 0.000000
0.770715 0.152386 0.000000
0.799231 0.173729 0.000000
0.824802 0.195347 0.000000
0.847364 0.217694 0.000000
0.868402 0.238186 0.000000
0.888326 0.256325 0.000000
0.907442 0.272351 0.000000
0.926288 0.285436 0.000000
0.944645 0.296540 0.000000
0.962874 0.304774 0.000000
0.981484 0.310625 0.000000
1.000000 0.312934 0.000000
0.000000 0.044170 0.000000
0.156247 0.047956 0.000000
0.296540 0.055355 0.000000
0.414850 0.069796 0.000000
0.508677 0.086123 0.000000
0.579911 0.109166 0.000000
0.636969 0.134708 0.000000
0.681611 0.161306 0.000000
0.717909 0.190366 0.000000
0.749893 0.219234 0.000000
0.776959 0.249113 0.000000
0.801090 0.278716 0.000000
0.822911 0.308565 0.000000
0.844101 0.336142 0.000000
0.864882 0.360517 0.000000
0.886348 0.382043 0.000000
0.907971 0.400051 0.000000
0.930204 0.414850 0.000000
0.952878 0.425476 0.000000
0.976298 0.432355 0.000000
1.000000 0.434756 0.000000
0.000000 0.060192 0.000000
0.150129 0.064642 0.000000
0.285436 0.073712 0.000000
0.400051 0.092029 0.000000
0.492343 0.112710 0.000000
0.560529 0.141605 0.000000
0.615252 0.173499 0.000000
0.658281 0.206755 0.000000
0.693246 0.243122 0.000000
0.723708 0.278857 0.000000
0.749752 0.316042 0.000000
0.773082 0.351957 0.000000
0.794188 0.387786 0.000000
0.816114 0.419322 0.000000
0.838399 0.447544 0.000000
0.862382 0.471957 0.000000
0.887290 0.492343 0.000000
0.913877 0.508677 0.000000
0.941563 0.520220 0.000000
0.970502 0.527580 0.000000
1.000000 0.529816 0.000000
0.000000 0.076170 0.000000
0.142999 0.081874 0.000000
0.272351 0.092558 0.000000
0.382043 0.113652 0.000000
0.471957 0.137618 0.000000
0.536598 0.170137 0.000000
0.588684 0.206028 0.000000
0.629879 0.243516 0.000000
0.663386 0.283684 0.000000
0.691948 0.323006 0.000000
0.715671 0.363682 0.000000
0.737808 0.402847 0.000000
0.757797 0.441449 0.000000
0.779901 0.476702 0.000000
0.803511 0.508459 0.000000
0.829863 0.536598 0.000000
0.858395 0.560529 0.000000
0.890834 0.579911 0.000000
0.925554 0.593693 0.000000
0.962252 0.602121 0.000000
1.000000 0.604979 0.000000
0.000000 0.094145 0.000000
0.134076 0.100077 0.000000
0.256325 0.111674 0.000000
0.360517 0.135118 0.000000
0.447544 0.161601 0.000000
0.508459 0.196489 0.000000
0.557902 0.234932 0.000000
0.597221 0.275411 0.000000
0.629191 0.318383 0.000000
0.655863 0.360478 0.000000
0.677608 0.403480 0.000000
0.698177 0.445028 0.000000
0.717314 0.485733 0.000000
0.739950 0.523487 0.000000
0.765068 0.557902 0.000000
0.793972 0.588684 0.000000
0.826501 0.615252 0.000000
0.865292 0.636969 0.000000
0.907630 0.652969 0.000000
0.952977 0.662518 0.000000
1.000000 0.665952 0.000000
0.000000 0.112567 0.000000
0.124278 0.119139 0.000000
0.238186 0.131598 0.000000
0.336142 0.155899 0.000000
0.419322 0.183886 0.000000
0.476702 0.220099 0.000000
0.523487 0.260050 0.000000
0.560697 0.302486 0.000000
0.590899 0.347087 0.000000
0.615551 0.391052 0.000000
0.635597 0.435628 0.000000
0.655010 0.478774 0.000000
0.673836 0.520911 0.000000
0.697514 0.560697 0.000000
0.724589 0.597221 0.000000
0.756484 0.629879 0.000000
0.793245 0.658281 0.000000
0.838694 0.681611 0.000000
0.889034 0.699187 0.000000
0.943309 0.709551 0.000000
1.000000 0.713472 0.000000
0.000000 0.133378 0.000000
0.113203 0.139620 0.000000
0.217694 0.152636 0.000000
0.308565 0.177089 0.000000
0.387786 0.205812 0.000000
0.441449 0.242203 0.000000
0.485733 0.282686 0.000000
0.520911 0.326164 0.000000
0.549641 0.372044 0.000000
0.572185 0.417063 0.000000
0.590715 0.462519 0.000000
0.609255 0.506707 0.000000
0.627956 0.549641 0.000000
0.652913 0.590899 0.000000
0.681617 0.629191 0.000000
0.716316 0.663386 0.000000
0.756878 0.693246 0.000000
0.809634 0.717909 0.000000
0.868461 0.737681 0.000000
0.932452 0.749309 0.000000
1.000000 0.753716 0.000000
0.000000 0.156335 0.000000
0.101226 0.162471 0.000000
0.195347 0.175198 0.000000
0.278716 0.198910 0.000000
0.351957 0.226918 0.000000
0.402847 0.262192 0.000000
0.445028 0.301823 0.000000
0.478774 0.344990 0.000000
0.506707 0.390745 0.000000
0.527798 0.436236 0.000000
0.545737 0.482319 0.000000
0.563764 0.527798 0.000000
0.582937 0.572185 0.000000
0.608948 0.615551 0.000000
0.639522 0.655863 0.000000
0.676994 0.691948 0.000000
0.721143 0.723708 0.000000
0.780766 0.749893 0.000000
0.847614 0.770715 0.000000
0.921525 0.782460 0.000000
1.000000 0.787542 0.000000
0.000000 0.182447 0.000000
0.089787 0.187799 0.000000
0.173729 0.200769 0.000000
0.249113 0.223041 0.000000
0.316042 0.250248 0.000000
0.363682 0.284329 0.000000
0.403480 0.322392 0.000000
0.435628 0.364403 0.000000
0.462519 0.409285 0.000000
0.482319 0.454263 0.000000
0.500000 0.500000 0.000000
0.517681 0.545737 0.000000
0.537481 0.590715 0.000000
0.564372 0.635597 0.000000
0.596520 0.677608 0.000000
0.636318 0.715671 0.000000
0.683958 0.749752 0.000000
0.750887 0.776959 0.000000
0.826271 0.799231 0.000000
0.910213 0.812201 0.000000
1.000000 0.817553 0.000000
0.000000 0.212458 0.000000
0.078475 0.217540 0.000000
0.152386 0.229285 0.000000
0.219234 0.250107 0.000000
0.278857 0.276292 0.000000
0.323006 0.308052 0.000000
0.360478 0.344137 0.000000
0.391052 0.384449 0.000000
0.417063 0.427815 0.000000
0.436236 0.472202 0.000000
0.454263 0.517681 0.000000
0.472202 0.563764 0.000000
0.493293 0.609255 0.000000
0.521226 0.655010 0.000000
0.554972 0.698177 0.000000
0.597153 0.737808 0.000000
0.648043 0.773082 0.000000
0.721284 0.801090 0.000000
0.804653 0.824802 0.000000
0.898774 0.837529 0.000000
1.000000 0.843665 0.000000
0.000000 0.246284 0.000000
0.067548 0.250691 0.000000
0.131539 0.262319 0.000000
0.190366 0.282091 0.000000
0.243122 0.306754 0.000000
0.283684 0.336614 0.000000
0.318383 0.370809 0.000000
0.347087 0.409101 0.000000
0.372044 0.450359 0.000000
0.390745 0.493293 0.000000
0.409285 0.537481 0.000000
0.427815 0.582937 0.000000
0.450359 0.627956 0.000000
0.479089 0.673836 0.000000
0.514267 0.717314 0.000000
0.558551 0.757797 0.000000
0.612214 0.794188 0.000000
0.691435 0.822911 0.000000
0.782306 0.847364 0.000000
0.886797 0.860380 0.000000
1.000000 0.866622 0.000000
0.000000 0.286528 0.000000
0.056691 0.290449 0.000000
0.110966 0.300813 0.000000
0.161306 0.318389 0.000000
0.206755 0.341719 0.000000
0.243516 0.370121 0.000000
0.275411 0.402779 0.000000
0.302486 0.439303 0.000000
0.326164 0.479089 0.000000
0.344990 0.521226 0.000000
0.364403 0.564372 0.000000
0.384449 0.608948 0.000000
0.409101 0.652913 0.000000
0.439303 0.697514 0.000000
0.476513 0.739950 0.000000
0.523298 0.779901 0.000000
0.580678 0.816114 0.000000
0.663858 0.844101 0.000000
0.761814 0.868402 0.000000
0.875722 0.880861 0.000000
1.000000 0.887433 0.000000
0.000000 0.334048 0.000000
0.047023 0.337482 0.000000
0.092370 0.347031 0.000000
0.134708 0.363031 0.000000
0.173499 0.384748 0.000000
0.206028 0.411316 0.000000
0.234932 0.442098 0.000000
0.260050 0.476513 0.000000
0.282686 0.514267 0.000000
0.301823 0.554972 0.000000
0.322392 0.596520 0.000000
0.344137 0.639522 0.000000
0.370809 0.681617 0.000000
0.402779 0.724589 0.000000
0.442098 0.765068 0.000000
0.491541 0.803511 0.000000
0.552456 0.838399 0.000000
0.639483 0.864882 0.000000
0.743675 0.888326 0.000000
0.865924 0.899923 0.000000
1.000000 0.905855 0.000000
0.000000 0.395021 0.000000
0.037748 0.397879 0.000000
0.074446 0.406307 0.000000
0.109166 0.420089 0.000000
0.141605 0.439471 0.000000
0.170137 0.463402 0.000000
0.196489 0.491541 0.000000
0.220099 0.523298 0.000000
0.242203 0.558551 0.000000
0.262192 0.597153 0.000000
0.284329 0.636318 0.000000
0.308052 0.676994 0.000000
0.336614 0.716316 0.000000
0.370121 0.756484 0.000000
0.411316 0.793972 0.000000
0.463402 0.829863 0.000000
0.528043 0.862382 0.000000
0.617957 0.886348 0.000000
0.727649 0.907442 0.000000
0.857001 0.918126 0.000000
1.000000 0.923830 0.000000
0.000000 0.470184 0.000000
0.029498 0.472420 0.000000
0.058437 0.479780 0.000000
0.086123 0.491323 0.000000
0.112710 0.507657 0.000000
0.137618 0.528043 0.000000
0.161601 0.552456 0.000000
0.183886 0.580678 0.000000
0.205812 0.612214 0.000000
0.226918 0.648043 0.000000
0.250248 0.683958 0.000000
0.276292 0.721143 0.000000
0.306754 0.756878 0.000000
0.341719 0.793245 0.000000
0.384748 0.826501 0.000000
0.439471 0.858395 0.000000
0.507657 0.887290 0.000000
0.599949 0.907971 0.000000
0.714564 0.926288 0.000000
0.849871 0.935358 0.000000
1.000000 0.939808 0.000000
0.000000 0.565244 0.000000
0.023702 0.567645 0.000000
0.047122 0.574524 0.000000
0.069796 0.585150 0.000000
0.092029 0.599949 0.000000
0.113652 0.617957 0.000000
0.135118 0.639483 0.000000
0.155899 0.663858 0.000000
0.177089 0.691435 0.000000
0.198910 0.721284 0.000000
0.223041 0.750887 0.000000
0.250107 0.780766 0.000000
0.282091 0.809634 0.000000
0.318389 0.838694 0.000000
0.363031 0.865292 0.000000
0.420089 0.890834 0.000000
0.491323 0.913877 0.000000
0.585150 0.930204 0.000000
0.703460 0.944645 0.000000
0.843753 0.952044 0.000000
1.000000 0.955830 0.000000
0.000000 0.687066 0.000000
0.018516 0.689375 0.000000
0.037126 0.695226 0.000000
0.055355 0.703460 0.000000
0.073712 0.714564 0.000000
0.092558 0.727649 0.000000
0.111674 0.743675 0.000000
0.131598 0.761814 0.000000
0.152636 0.782306 0.000000
0.175198 0.804653 0.000000
0.200769 0.826271 0.000000
0.229285 0.847614 0.000000
0.262319 0.868461 0.000000
0.300813 0.889034 0.000000
0.347031 0.907630 0.000000
0.406307 0.925554 0.000000
0.479780 0.941563 0.000000
0.574524 0.952878 0.000000
0.695226 0.962874 0.000000
0.839030 0.968300 0.000000
1.000000 0.970938 0.000000
0.000000 0.834452 0.000000
0.015810 0.835731 0.000000
0.031700 0.839030 0.000000
0.047956 0.843753 0.000000
0.064642 0.849871 0.000000
0.081874 0.857001 0.000000
0.100077 0.865924 0.000000
0.119139 0.875722 0.000000
0.139620 0.886797 0.000000
0.162471 0.898774 0.000000
0.187799 0.910213 0.000000
0.217540 0.921525 0.000000
0.250691 0.932452 0.000000
0.290449 0.943309 0.000000
0.337482 0.952977 0.000000
0.397879 0.962252 0.000000
0.472420 0.970502 0.000000
0.567645 0.976298 0.000000
0.689375 0.981484 0.000000
0.835731 0.984190 0.000000
1.000000 0.985267 0.000000
0.000000 1.000000 0.000000
0.014733 1.000000 0.000000
0.029062 1.000000 0.000000
0.044170 1.000000 0.000000
0.060192 1.000000 0.000000
0.076170 1.000000 0.000000
0.094145 1.000000 0.000000
0.112567 1.000000 0.000000
0.133378 1.000000 0.000000
0.156335 1.000000 0.000000
0.182447 1.000000 0.000000
0.212458 1.000000 0.000000
0.246284 1.000000 0.000000
0.286528 1.000000 0.000000
0.334048 1.000000 0.000000
0.395021 1.000000 0.000000
0.470184 1.000000 0.000000
0.565244 1.000000 0.000000
0.687066 1.000000 0.000000
0.834452 1.000000 0.000000
1.000000 1.000000 0.000000
0.000000 0.000000 0.082500
0.165548 0.000000 0.082500
0.312934 0.000000 0.082500
0.434756 0.000000 0.082500
0.529816 0.000000 0.082500
0.604979 0.000000 0.082500
0.665952 0.000000 0.082500
0.713472 0.000000 0.082500
0.753716 0.000000 0.082500
0.787542 0.000000 0.082500
0.817553 0.000000 0.082500
0.843665 0.000000 0.082500
0.866622 0.000000 0.082500
0.887433 0.000000 0.082500
0.905855 0.000000 0.082500
0.923830 0.000000 0.082500
0.939808 0.000000 0.082500
0.955830 0.000000 0.082500
0.970938 0.000000 0.082500
0.985267 0.000000 0.082500
1.000000 0.000000 0.082500
0.000000 0.014733 0.082500
0.164269 0.015810 0.082500
0.310625 0.018516 0.082500
0.432355 0.023702 0.082500
0.527580 0.029498 0.082500
0.602121 0.037748 0.082500
0.662518 0.047023 0.082500
0.709551 0.056691 0.082500
0.749309 0.067548 0.082500
0.782460 0.078475 0.082500
0.812201 0.089787 0.082500
0.837529 0.101226 0.082500
0.860380 0.113203 0.082500
0.880861 0.124278 0.082500
0.899923 0.134076 0.082500
0.918126 0.142999 0.082500
0.935358 0.150129 0.082500
0.952044 0.156247 0.082500
0.968300 0.160970 0.082500
0.984190 0.164269 0.082500
1.000000 0.165548 0.082500
0.000000 0.029062 0.082500
0.160970 0.031700 0.082500
0.304774 0.037126 0.082500
0.425476 0.047122 0.082500
0.520220 0.058437 0.082500
0.593693 0.074446 0.082500
0.652969 0.092370 0.082500
0.699187 0.110966 0.082500
0.737681 0.131539 0.082500
0.770715 0.152386 0.082500
0.799231 0.173729 0.082500
0.824802 0.195347 0.082500
0.847364 0.217694 0.082500
0.868402 0.238186 0.082500
0.888326 0.256325 0.082500
0.907442 0.272351 0.082500
0.926288 0.285436 0.082500
0.944645 0.296540 0.082500
0.962874 0.304774 0.082500
0.981484 0.310625 0.082500
1.000000 0.312934 0.082500
0.000000 0.044170 0.082500
0.156247 0.047956 0.082500
0.296540 0.055355 0.082500
0.414850 0.069796 0.082500
0.508677 0.086123 0.082500
0.579911 0.109166 0.082500
0.636969 0.134708 0.082500
0.681611 0.161306 0.082500
0.717909 0.190366 0.082500
0.749893 0.219234 0.082500
0.776959 0.249113 0.082500
0.801090 0.278716 0.082500
0.822911 0.308565 0.082500
0.844101 0.336142 0.082500
0.864882 0.360517 0.082500
0.886348 0.382043 0.082500
0.907971 0.400051 0.082500
0.930204 0.414850 0.082500
0.952878 0.425476 0.082500
0.976298 0.432355 0.082500
1.000000 0.434756 0.082500
0.000000 0.060192 0.082500
0.150129 0.064642 0.082500
0.285436 0.073712 0.082500
0.400051 0.092029 0.082500
0.492343 0.112710 0.082500
0.560529 0.141605 0.082500
0.615252 0.173499 0.082500
0.658281 0.206755 0.082500
0.693246 0.243122 0.082500
0.723708 0.278857 0.082500
0.749752 0.316042 0.082500
0.773082 0.351957 0.082500
0.794188 0.387786 0.082500
0.816114 0.419322 0.082500
0.838399 0.447544 0.082500
0.862382 0.471957 0.082500
0.887290 0.492343 0.082500
0.913877 0.508677 0.082500
0.941563 0.520220 0.082500
0.970502 0.527580 0.082500
1.000000 0.529816 0.082500
0.000000 0.076170 0.082500
0.142999 0.081874 0.082500
0.272351 0.092558 0.082500
0.382043 0.113652 0.082500
0.471957 0.137618 0.082500
0.536598 0.170137 0.082500
0.588684 0.206028 0.082500
0.629879 0.243516 0.082500
0.663386 0.283684 0.082500
0.691948 0.323006 0.082500
0.715671 0.363682 0.082500
0.737808 0.402847 0.082500
0.757797 0.441449 0.082500
0.779901 0.476702 0.082500
0.803511 0.508459 0.082500
0.829863 0.536598 0.082500
0.858395 0.560529 0.082500
0.890834 0.579911 0.082500
0.925554 0.593693 0.082500
0.962252 0.602121 0.082500
1.000000 0.604979 0.082500
0.000000 0.094145 0.082500
0.134076 0.100077 0.082500
0.256325 0.111674 0.082500
0.360517 0.135118 0.082500
0.447544 0.161601 0.082500
0.508459 0.196489 0.082500
0.557902 0.234932 0.082500
0.597221 0.275411 0.082500
0.629191 0.318383 0.082500
0.655863 0.360478 0.082500
0.677608 0.403480 0.082500
0.698177 0.445028 0.082500
0.717314 0.485733 0.082500
0.739950 0.523487 0.082500
0.765068 0.557902 0.082500
0.793972 0.588684 0.082500
0.826501 0.615252 0.082500
0.865292 0.636969 0.082500
0.907630 0.652969 0.082500
0.952977 0.662518 0.082500
1.000000 0.665952 0.082500
0.000000 0.112567 0.082500
0.124278 0.119139 0.082500
0.238186 0.131598 0.082500
0.336142 0.155899 0.082500
0.419322 0.183886 0.082500
0.476702 0.220099 0.082500
0.523487 0.260050 0.082500
0.560697 0.302486 0.082500
0.590899 0.347087 0.082500
0.615551 0.391052 0.082500
0.635597 0.435628 0.082500
0.655010 0.478774 0.082500
0.673836 0.520911 0.082500
0.697514 0.560697 0.082500
0.724589 0.597221 0.082500
0.756484 0.629879 0.082500
0.793245 0.658281 0.082500
0.838694 0.681611 0.082500
0.889034 0.699187 0.082500
0.943309 0.709551 0.082500
1.000000 0.713472 0.082500
0.000000 0.133378 0.082500
0.113203 0.139620 0.082500
0.217694 0.152636 0.082500
0.308565 0.177089 0.082500
0.387786 0.205812 0.082500
0.441449 0.242203 0.082500
0.485733 0.282686 0.082500
0.520911 0.326164 0.082500
0.549641 0.372044 0.082500
0.572185 0.417063 0.082500
0.590715 0.462519 0.082500
0.609255 0.506707 0.082500
0.627956 0.549641 0.082500
0.652913 0.590899 0.082500
0.681617 0.629191 0.082500
0.716316 0.663386 0.082500
0.756878 0.693246 0.082500
0.809634 0.717909 0.082500
0.868461 0.737681 0.082500
0.932452 0.749309 0.082500
1.000000 0.753716 0.082500
0.000000 0.156335 0.082500
0.101226 0.162471 0.082500
0.195347 0.175198 0.082500
0.278716 0.198910 0.082500
0.351957 0.226918 0.082500
0.402847 0.262192 0.082500
0.445028 0.301823 0.082500
0.478774 0.344990 0.082500
0.506707 0.390745 0.082500
0.527798 0.436236 0.082500
0.545737 0.482319 0.082500
0.563764 0.527798 0.082500
0.582937 0.572185 0.082500
0.608948 0.615551 0.082500
0.639522 0.655863 0.082500
0.676994 0.691948 0.082500
0.721143 0.723708 0.082500
0.780766 0.749893 0.082500
0.847614 0.770715 0.082500
0.921525 0.782460 0.082500
1.000000 0.787542 0.082500
0.000000 0.182447 0.082500
0.089787 0.187799 0.082500
0.173729 0.200769 0.082500
0.249113 0.223041 0.082500
0.316042 0.250248 0.082500
0.363682 0.284329 0.082500
0.403480 0.322392 0.082500
0.435628 0.364403 0.082500
0.462519 0.409285 0.082500
0.482319 0.454263 0.082500
0.500000 0.500000 0.082500
0.517681 0.545737 0.082500
0.537481 0.590715 0.082500
0.564372 0.635597 0.082500
0.596520 0.677608 0.082500
0.636318 0.715671 0.082500
0.683958 0.749752 0.082500
0.750887 0.776959 0.082500
0.826271 0.799231 0.082500
0.910213 0.812201 0.082500
1.000000 0.817553 0.082500
0.000000 0.212458 0.082500
0.078475 0.217540 0.082500
0.152386 0.229285 0.082500
0.219234 0.250107 0.082500
0.278857 0.276292 0.082500
0.323006 0.308052 0.082500
0.360478 0.344137 0.082500
0.391052 0.384449 0.082500
0.417063 0.427815 0.082500
0.436236 0.472202 0.082500
0.454263 0.517681 0.082500
0.472202 0.563764 0.082500
0.493293 0.609255 0.082500
0.521226 0.655010 0.082500
0.554972 0.698177 0.082500
0.597153 0.737808 0.082500
0.648043 0.773082 0.082500
0.721284 0.801090 0.082500
0.804653 0.824802 0.082500
0.898774 0.837529 0.082500
1.000000 0.843665 0.082500
0.000000 0.246284 0.082500
0.067548 0.250691 0.082500
0.131539 0.262319 0.082500
0.190366 0.282091 0.082500
0.243122 0.306754 0.082500
0.283684 0.336614 0.082500
0.318383 0.370809 0.082500
0.347087 0.409101 0.082500
0.372044 0.450359 0.082500
0.390745 0.493293 0.082500
0.409285 0.537481 0.082500
0.427815 0.582937 0.082500
0.450359 0.627956 0.082500
0.479089 0.673836 0.082500
0.514267 0.717314 0.082500
0.558551 0.757797 0.082500
0.612214 0.794188 0.082500
0.691435 0.822911 0.082500
0.782306 0.847364 0.082500
0.886797 0.860380 0.082500
1.000000 0.866622 0.082500
0.000000 0.286528 0.082500
0.056691 0.290449 0.082500
0.110966 0.300813 0.082500
0.161306 0.318389 0.082500
0.206755 0.341719 0.082500
0.243516 0.370121 0.082500
0.275411 0.402779 0.082500
0.302486 0.439303 0.082500
0.326164 0.479089 0.082500
0.344990 0.521226 0.082500
0.364403 0.564372 0.082500
0.384449 0.608948 0.082500
0.409101 0.652913 0.082500
0.439303 0.697514 0.082500
0.476513 0.739950 0.082500
0.523298 0.779901 0.082500
0.580678 0.816114 0.082500
0.663858 0.844101 0.082500
0.761814 0.868402 0.082500
0.875722 0.880861 0.082500
1.000000 0.887433 0.082500
0.000000 0.334048 0.082500
0.047023 0.337482 0.082500
0.092370 0.347031 0.082500
0.134708 0.363031 0.082500