# vtk DataFile Version 2.0
Mesh for Fierro
ASCII 
DATASET UNSTRUCTURED_GRID

POINTS 2205 float
0.000000 0.000000 0.000000
0.433185 0.000000 0.000000
0.661810 0.000000 0.000000
0.757808 0.000000 0.000000
0.815725 0.000000 0.000000
0.850404 0.000000 0.000000
0.877467 0.000000 0.000000
0.897957 0.000000 0.000000
0.913120 0.000000 0.000000
0.926066 0.000000 0.000000
0.936969 0.000000 0.000000
0.946040 0.000000 0.000000
0.953831 0.000000 0.000000
0.960839 0.000000 0.000000
0.967159 0.000000 0.000000
0.972957 0.000000 0.000000
0.978351 0.000000 0.000000
0.983727 0.000000 0.000000
0.989079 0.000000 0.000000
0.994472 0.000000 0.000000
1.000000 0.000000 0.000000
0.000000 0.005528 0.000000
0.430493 0.007431 0.000000
0.657919 0.018436 0.000000
0.754380 0.032156 0.000000
0.813120 0.058862 0.000000
0.848448 0.083467 0.000000
0.875382 0.109806 0.000000
0.894227 0.143350 0.000000
0.908391 0.178844 0.000000
0.919674 0.213038 0.000000
0.929191 0.245674 0.000000
0.937547 0.278019 0.000000
0.944749 0.310315 0.000000
0.951487 0.338532 0.000000
0.958010 0.362532 0.000000
0.964625 0.383441 0.000000
0.971332 0.399472 0.000000
0.978259 0.412688 0.000000
0.985288 0.423201 0.000000
0.992569 0.430493 0.000000
1.000000 0.433185 0.000000
0.000000 0.010921 0.000000
0.423201 0.014712 0.000000
0.649756 0.035821 0.000000
0.748174 0.062200 0.000000
0.802997 0.110334 0.000000
0.839780 0.154539 0.000000
0.865036 0.208860 0.000000
0.880008 0.267019 0.000000
0.889797 0.325746 0.000000
0.896530 0.377926 0.000000
0.901476 0.426406 0.000000
0.904992 0.471423 0.000000
0.907378 0.512811 0.000000
0.911057 0.547737 0.000000
0.916643 0.576902 0.000000
0.924610 0.601824 0.000000
0.935314 0.621531 0.000000
0.948778 0.637501 0.000000
0.964179 0.649756 0.000000
0.981564 0.657919 0.000000
1.000000 0.661810 0.000000
0.000000 0.016273 0.000000
0.412688 0.021741 0.000000
0.637501 0.051222 0.000000
0.735760 0.088581 0.000000
0.786969 0.152020 0.000000
0.823351 0.208669 0.000000
0.841495 0.279226 0.000000
0.850787 0.346660 0.000000
0.852262 0.414460 0.000000
0.853103 0.470039 0.000000
0.851027 0.522448 0.000000
0.848745 0.568874 0.000000
0.846863 0.611003 0.000000
0.849727 0.646745 0.000000
0.857152 0.676768 0.000000
0.869861 0.701738 0.000000
0.887438 0.721419 0.000000
0.911419 0.735760 0.000000
0.937800 0.748174 0.000000
0.967844 0.754380 0.000000
1.000000 0.757808 0.000000
0.000000 0.021649 0.000000
0.399472 0.028668 0.000000
0.621531 0.064686 0.000000
0.721419 0.112562 0.000000
0.768717 0.187486 0.000000
0.803269 0.254771 0.000000
0.811847 0.337518 0.000000
0.815049 0.407767 0.000000
0.806625 0.478297 0.000000
0.801006 0.533589 0.000000
0.790756 0.584476 0.000000
0.782324 0.626977 0.000000
0.774620 0.663248 0.000000
0.773906 0.694018 0.000000
0.778856 0.721430 0.000000
0.791953 0.746115 0.000000
0.812514 0.768717 0.000000
0.847980 0.786969 0.000000
0.889666 0.802997 0.000000
0.941138 0.813120 0.000000
1.000000 0.815725 0.000000
0.000000 0.027043 0.000000
0.383441 0.035375 0.000000
0.601824 0.075390 0.000000
0.701738 0.130139 0.000000
0.746115 0.208047 0.000000
0.778319 0.281978 0.000000
0.779451 0.362229 0.000000
0.777368 0.432715 0.000000
0.762355 0.498171 0.000000
0.750232 0.552039 0.000000
0.733294 0.600094 0.000000
0.716724 0.642377 0.000000
0.701581 0.680669 0.000000
0.696549 0.716620 0.000000
0.701349 0.749153 0.000000
0.718022 0.778319 0.000000
0.745229 0.803269 0.000000
0.791331 0.823351 0.000000
0.845461 0.839780 0.000000
0.916533 0.848448 0.000000
1.000000 0.850404 0.000000
0.000000 0.032841 0.000000
0.362532 0.041990 0.000000
0.576902 0.083357 0.000000
0.676768 0.142848 0.000000
0.721430 0.221144 0.000000
0.749153 0.298651 0.000000
0.745072 0.375150 0.000000
0.737779 0.444641 0.000000
0.716783 0.505510 0.000000
0.699155 0.556932 0.000000
0.675805 0.601396 0.000000
0.654450 0.640487 0.000000
0.634879 0.675616 0.000000
0.625440 0.710844 0.000000
0.624850 0.745072 0.000000
0.637771 0.779451 0.000000
0.662482 0.811847 0.000000
0.720774 0.841495 0.000000
0.791140 0.865036 0.000000
0.890194 0.875382 0.000000
1.000000 0.877467 0.000000
0.000000 0.039161 0.000000
0.338532 0.048513 0.000000
0.547737 0.088943 0.000000
0.646745 0.150273 0.000000
0.694018 0.226094 0.000000
0.716620 0.303451 0.000000
0.710844 0.374560 0.000000
0.698851 0.441440 0.000000
0.674534 0.497377 0.000000
0.651823 0.545946 0.000000
0.623793 0.586798 0.000000
0.597032 0.624383 0.000000
0.572073 0.659821 0.000000
0.558560 0.698851 0.000000
0.555359 0.737779 0.000000
0.567285 0.777368 0.000000
0.592233 0.815049 0.000000
0.653340 0.850787 0.000000
0.732981 0.880008 0.000000
0.856650 0.894227 0.000000
1.000000 0.897957 0.000000
0.000000 0.046169 0.000000
0.310315 0.055251 0.000000
0.512811 0.092622 0.000000
0.611003 0.153137 0.000000
0.663248 0.225380 0.000000
0.680669 0.298419 0.000000
0.675616 0.365121 0.000000
0.659821 0.427927 0.000000
0.633462 0.480706 0.000000
0.606403 0.525955 0.000000
0.574902 0.563399 0.000000
0.546167 0.599031 0.000000
0.519294 0.633462 0.000000
0.502623 0.674534 0.000000
0.494490 0.716783 0.000000
0.501829 0.762355 0.000000
0.521703 0.806625 0.000000
0.585540 0.852262 0.000000
0.674254 0.889797 0.000000
0.821156 0.908391 0.000000
1.000000 0.913120 0.000000
0.000000 0.053960 0.000000
0.278019 0.062453 0.000000
0.471423 0.095008 0.000000
0.568874 0.151255 0.000000
0.626977 0.217676 0.000000
0.642377 0.283276 0.000000
0.640487 0.345550 0.000000
0.624383 0.402968 0.000000
0.599031 0.453833 0.000000
0.569328 0.496399 0.000000
0.535900 0.533046 0.000000
0.503601 0.569328 0.000000
0.474045 0.606403 0.000000
0.454054 0.651823 0.000000
0.443068 0.699155 0.000000
0.447961 0.750232 0.000000
0.466411 0.801006 0.000000
0.529961 0.853103 0.000000
0.622074 0.896530 0.000000
0.786962 0.919674 0.000000
1.000000 0.926066 0.000000
0.000000 0.063031 0.000000
0.245674 0.070809 0.000000
0.426406 0.098524 0.000000
0.522448 0.148973 0.000000
0.584476 0.209244 0.000000
0.600094 0.266706 0.000000
0.601396 0.324195 0.000000
0.586798 0.376207 0.000000
0.563399 0.425098 0.000000
0.533046 0.464100 0.000000
0.500000 0.500000 0.000000
0.466954 0.535900 0.000000
0.436601 0.574902 0.000000
0.413202 0.623793 0.000000
0.398604 0.675805 0.000000
0.399906 0.733294 0.000000
0.415524 0.790756 0.000000
0.477552 0.851027 0.000000
0.573594 0.901476 0.000000
0.754326 0.929191 0.000000
1.000000 0.936969 0.000000
0.000000 0.073934 0.000000
0.213038 0.080326 0.000000
0.377926 0.103470 0.000000
0.470039 0.146897 0.000000
0.533589 0.198994 0.000000
0.552039 0.249768 0.000000
0.556932 0.300845 0.000000
0.545946 0.348177 0.000000
0.525955 0.393597 0.000000
0.496399 0.430672 0.000000
0.464100 0.466954 0.000000
0.430672 0.503601 0.000000
0.400969 0.546167 0.000000
0.375617 0.597032 0.000000
0.359513 0.654450 0.000000
0.357623 0.716724 0.000000
0.373023 0.782324 0.000000
0.431126 0.848745 0.000000
0.528577 0.904992 0.000000
0.721981 0.937547 0.000000
1.000000 0.946040 0.000000
0.000000 0.086880 0.000000
0.178844 0.091609 0.000000
0.325746 0.110203 0.000000
0.414460 0.147738 0.000000
0.478297 0.193375 0.000000
0.498171 0.237645 0.000000
0.505510 0.283217 0.000000
0.497377 0.325466 0.000000
0.480706 0.366538 0.000000
0.453833 0.400969 0.000000
0.425098 0.436601 0.000000
0.393597 0.474045 0.000000
0.366538 0.519294 0.000000
0.340179 0.572073 0.000000
0.324384 0.634879 0.000000
0.319331 0.701581 0.000000
0.336752 0.774620 0.000000
0.388997 0.846863 0.000000
0.487189 0.907378 0.000000
0.689685 0.944749 0.000000
1.000000 0.953831 0.000000
0.000000 0.102043 0.000000
0.143350 0.105773 0.000000
0.267019 0.119992 0.000000
0.346660 0.149213 0.000000
0.407767 0.184951 0.000000
0.432715 0.222632 0.000000
0.444641 0.262221 0.000000
0.441440 0.301149 0.000000
0.427927 0.340179 0.000000
0.402968 0.375617 0.000000
0.376207 0.413202 0.000000
0.348177 0.454054 0.000000
0.325466 0.502623 0.000000
0.301149 0.558560 0.000000
0.289156 0.625440 0.000000
0.283380 0.696549 0.000000
0.305982 0.773906 0.000000
0.353255 0.849727 0.000000
0.452263 0.911057 0.000000
0.661468 0.951487 0.000000
1.000000 0.960839 0.000000
0.000000 0.122533 0.000000
0.109806 0.124618 0.000000
0.208860 0.134964 0.000000
0.279226 0.158505 0.000000
0.337518 0.188153 0.000000
0.362229 0.220549 0.000000
0.375150 0.254928 0.000000
0.374560 0.289156 0.000000
0.365121 0.324384 0.000000
0.345550 0.359513 0.000000
0.324195 0.398604 0.000000
0.300845 0.443068 0.000000
0.283217 0.494490 0.000000
0.262221 0.555359 0.000000
0.254928 0.624850 0.000000
0.250847 0.701349 0.000000
0.278570 0.778856 0.000000
0.323232 0.857152 0.000000
0.423098 0.916643 0.000000
0.637468 0.958010 0.000000
1.000000 0.967159 0.000000
0.000000 0.149596 0.000000
0.083467 0.151552 0.000000
0.154539 0.160220 0.000000
0.208669 0.176649 0.000000
0.254771 0.196731 0.000000
0.281978 0.221681 0.000000
0.298651 0.250847 0.000000
0.303451 0.283380 0.000000
0.298419 0.319331 0.000000
0.283276 0.357623 0.000000
0.266706 0.399906 0.000000
0.249768 0.447961 0.000000
0.237645 0.501829 0.000000
0.222632 0.567285 0.000000
0.220549 0.637771 0.000000
0.221681 0.718022 0.000000
0.253885 0.791953 0.000000
0.298262 0.869861 0.000000
0.398176 0.924610 0.000000
0.616559 0.964625 0.000000
1.000000 0.972957 0.000000
0.000000 0.184275 0.000000
0.058862 0.186880 0.000000
0.110334 0.197003 0.000000
0.152020 0.213031 0.000000
0.187486 0.231283 0.000000
0.208047 0.253885 0.000000
0.221144 0.278570 0.000000
0.226094 0.305982 0.000000
0.225380 0.336752 0.000000
0.217676 0.373023 0.000000
0.209244 0.415524 0.000000
0.198994 0.466411 0.000000
0.193375 0.521703 0.000000
0.184951 0.592233 0.000000
0.188153 0.662482 0.000000
0.196731 0.745229 0.000000
0.231283 0.812514 0.000000
0.278581 0.887438 0.000000
0.378469 0.935314 0.000000
0.600528 0.971332 0.000000
1.000000 0.978351 0.000000
0.000000 0.242192 0.000000
0.032156 0.245620 0.000000
0.062200 0.251826 0.000000
0.088581 0.264240 0.000000
0.112562 0.278581 0.000000
0.130139 0.298262 0.000000
0.142848 0.323232 0.000000
0.150273 0.353255 0.000000
0.153137 0.388997 0.000000
[...]
POINT_DATA 2205 
VECTORS pos float 
0.000000 0.000000 0.000000
0.433185 0.000000 0.000000
0.661810 0.000000 0.000000
0.757808 0.000000 0.000000
0.815725 0.000000 0.000000
0.850404 0.000000 0.000000
0.877467 0.000000 0.000000
0.897957 0.000000 0.000000
0.913120 0.000000 0.000000
0.926066 0.000000 0.000000
0.936969 0.000000 0.000000
0.946040 0.000000 0.000000
0.953831 0.000000 0.000000
0.960839 0.000000 0.000000
0.967159 0.000000 0.000000
0.972957 0.000000 0.000000
0.978351 0.000000 0.000000
0.983727 0.000000 0.000000
0.989079 0.000000 0.000000
0.994472 0.000000 0.000000
1.000000 0.000000 0.000000
0.000000 0.005528 0.000000
0.430493 0.007431 0.000000
0.657919 0.018436 0.000000
0.754380 0.032156 0.000000
0.813120 0.058862 0.000000
0.848448 0.083467 0.000000
0.875382 0.109806 0.000000
0.894227 0.143350 0.000000
0.908391 0.178844 0.000000
0.919674 0.213038 0.000000
0.929191 0.245674 0.000000
0.937547 0.278019 0.000000
0.944749 0.310315 0.000000
0.951487 0.338532 0.000000
0.958010 0.362532 0.000000
0.964625 0.383441 0.000000
0.971332 0.399472 0.000000
0.978259 0.412688 0.000000
0.985288 0.423201 0.000000
0.992569 0.430493 0.000000
1.000000 0.433185 0.000000
0.000000 0.010921 0.000000
0.423201 0.014712 0.000000
0.649756 0.035821 0.000000
0.748174 0.062200 0.000000
0.802997 0.110334 0.000000
0.839780 0.154539 0.000000
0.865036 0.208860 0.000000
0.880008 0.267019 0.000000
0.889797 0.325746 0.000000
0.896530 0.377926 0.000000
0.901476 0.426406 0.000000
0.904992 0.471423 0.000000
0.907378 0.512811 0.000000
0.911057 0.547737 0.000000
0.916643 0.576902 0.000000
0.924610 0.601824 0.000000
0.935314 0.621531 0.000000
0.948778 0.637501 0.000000
0.964179 0.649756 0.000000
0.981564 0.657919 0.000000
1.000000 0.661810 0.000000
0.000000 0.016273 0.000000
0.412688 0.021741 0.000000
0.637501 0.051222 0.000000
0.735760 0.088581 0.000000
0.786969 0.152020 0.000000
0.823351 0.208669 0.000000
0.841495 0.279226 0.000000
0.850787 0.346660 0.000000
0.852262 0.414460 0.000000
0.853103 0.470039 0.000000
0.851027 0.522448 0.000000
0.848745 0.568874 0.000000
0.846863 0.611003 0.000000
0.849727 0.646745 0.000000
0.857152 0.676768 0.000000
0.869861 0.701738 0.000000
0.887438 0.721419 0.000000
0.911419 0.735760 0.000000
0.937800 0.748174 0.000000
0.967844 0.754380 0.000000
1.000000 0.757808 0.000000
0.000000 0.021649 0.000000
0.399472 0.028668 0.000000
0.621531 0.064686 0.000000
0.721419 0.112562 0.000000
0.768717 0.187486 0.000000
0.803269 0.254771 0.000000
0.811847 0.337518 0.000000
0.815049 0.407767 0.000000
0.806625 0.478297 0.000000
0.801006 0.533589 0.000000
0.790756 0.584476 0.000000
0.782324 0.626977 0.000000
0.774620 0.663248 0.000000
0.773906 0.694018 0.000000
0.778856 0.721430 0.000000
0.791953 0.746115 0.000000
0.812514 0.768717 0.000000
0.847980 0.786969 0.000000
0.889666 0.802997 0.000000
0.941138 0.813120 0.000000
1.000000 0.815725 0.000000
0.000000 0.027043 0.000000
0.383441 0.035375 0.000000
0.601824 0.075390 0.000000
0.701738 0.130139 0.000000
0.746115 0.208047 0.000000
0.778319 0.281978 0.000000
0.779451 0.362229 0.000000
0.777368 0.432715 0.000000
0.762355 0.498171 0.000000
0.750232 0.552039 0.000000
0.733294 0.600094 0.000000
0.716724 0.642377 0.000000
0.701581 0.680669 0.000000
0.696549 0.716620 0.000000
0.701349 0.749153 0.000000
0.718022 0.778319 0.000000
0.745229 0.803269 0.000000
0.791331 0.823351 0.000000
0.845461 0.839780 0.000000
0.916533 0.848448 0.000000
1.000000 0.850404 0.000000
0.000000 0.032841 0.000000
0.362532 0.041990 0.000000
0.576902 0.083357 0.000000
0.676768 0.142848 0.000000
0.721430 0.221144 0.000000
0.749153 0.298651 0.000000
0.745072 0.375150 0.000000
0.737779 0.444641 0.000000
0.716783 0.505510 0.000000
0.699155 0.556932 0.000000
0.675805 0.601396 0.000000
0.654450 0.640487 0.000000
0.634879 0.675616 0.000000
0.625440 0.710844 0.000000
0.624850 0.745072 0.000000
0.637771 0.779451 0.000000
0.662482 0.811847 0.000000
0.720774 0.841495 0.000000
0.791140 0.865036 0.000000
0.890194 0.875382 0.000000
1.000000 0.877467 0.000000
0.000000 0.039161 0.000000
0.338532 0.048513 0.000000
0.547737 0.088943 0.000000
0.646745 0.150273 0.000000
0.694018 0.226094 0.000000
0.716620 0.303451 0.000000
0.710844 0.374560 0.000000
0.698851 0.441440 0.000000
0.674534 0.497377 0.000000
0.651823 0.545946 0.000000
0.623793 0.586798 0.000000
0.597032 0.624383 0.000000
0.572073 0.659821 0.000000
0.558560 0.698851 0.000000
0.555359 0.737779 0.000000
0.567285 0.777368 0.000000
0.592233 0.815049 0.000000
0.653340 0.850787 0.000000
0.732981 0.880008 0.000000
0.856650 0.894227 0.000000
1.000000 0.897957 0.000000
0.000000 0.046169 0.000000
0.310315 0.055251 0.000000
0.512811 0.092622 0.000000
0.611003 0.153137 0.000000
0.663248 0.225380 0.000000
0.680669 0.298419 0.000000
0.675616 0.365121 0.000000
0.659821 0.427927 0.000000
0.633462 0.480706 0.000000
0.606403 0.525955 0.000000
0.574902 0.563399 0.000000
0.546167 0.599031 0.000000
0.519294 0.633462 0.000000
0.502623 0.674534 0.000000
0.494490 0.716783 0.000000
0.501829 0.762355 0.000000
0.521703 0.806625 0.000000
0.585540 0.852262 0.000000
0.674254 0.889797 0.000000
0.821156 0.908391 0.000000
1.000000 0.913120 0.000000
0.000000 0.053960 0.000000
0.278019 0.062453 0.000000
0.471423 0.095008 0.000000
0.568874 0.151255 0.000000
0.626977 0.217676 0.000000
0.642377 0.283276 0.000000
0.640487 0.345550 0.000000
0.624383 0.402968 0.000000
0.599031 0.453833 0.000000
0.569328 0.496399 0.000000
0.535900 0.533046 0.000000
0.503601 0.569328 0.000000
0.474045 0.606403 0.000000
0.454054 0.651823 0.000000
0.443068 0.699155 0.000000
0.447961 0.750232 0.000000
0.466411 0.801006 0.000000
0.529961 0.853103 0.000000
0.622074 0.896530 0.000000
0.786962 0.919674 0.000000
1.000000 0.926066 0.000000
0.000000 0.063031 0.000000
0.245674 0.070809 0.000000
0.426406 0.098524 0.000000
0.522448 0.148973 0.000000
0.584476 0.209244 0.000000
0.600094 0.266706 0.000000
0.601396 0.324195 0.000000
0.586798 0.376207 0.000000
0.563399 0.425098 0.000000
0.533046 0.464100 0.000000
0.500000 0.500000 0.000000
0.466954 0.535900 0.000000
0.436601 0.574902 0.000000
0.413202 0.623793 0.000000
0.398604 0.675805 0.000000
0.399906 0.733294 0.000000
0.415524 0.790756 0.000000
0.477552 0.851027 0.000000
0.573594 0.901476 0.000000
0.754326 0.929191 0.000000
1.000000 0.936969 0.000000
0.000000 0.073934 0.000000
0.213038 0.080326 0.000000
0.377926 0.103470 0.000000
0.470039 0.146897 0.000000
0.533589 0.198994 0.000000
0.552039 0.249768 0.000000
0.556932 0.300845 0.000000
0.545946 0.348177 0.000000
0.525955 0.393597 0.000000
0.496399 0.430672 0.000000
0.464100 0.466954 0.000000
0.430672 0.503601 0.000000
0.400969 0.546167 0.000000
0.375617 0.597032 0.000000
0.359513 0.654450 0.000000
0.357623 0.716724 0.000000
0.373023 0.782324 0.000000
0.431126 0.848745 0.000000
0.528577 0.904992 0.000000
0.721981 0.937547 0.000000
1.000000 0.946040 0.000000
0.000000 0.086880 0.000000
0.178844 0.091609 0.000000
0.325746 0.110203 0.000000
0.414460 0.147738 0.000000
0.478297 0.193375 0.000000
0.498171 0.237645 0.000000
0.505510 0.283217 0.000000
0.497377 0.325466 0.000000
0.480706 0.366538 0.000000
0.453833 0.400969 0.000000
0.425098 0.436601 0.000000
0.393597 0.474045 0.000000
0.366538 0.519294 0.000000
0.340179 0.572073 0.000000
0.324384 0.634879 0.000000
0.319331 0.701581 0.000000
0.336752 0.774620 0.000000
0.388997 0.846863 0.000000
0.487189 0.907378 0.000000
0.689685 0.944749 0.000000
1.000000 0.953831 0.000000
0.000000 0.102043 0.000000
0.143350 0.105773 0.000000
0.267019 0.119992 0.000000
0.346660 0.149213 0.000000
0.407767 0.184951 0.000000
0.432715 0.222632 0.000000
0.444641 0.262221 0.000000
0.441440 0.301149 0.000000
0.427927 0.340179 0.000000
0.402968 0.375617 0.000000
0.376207 0.413202 0.000000
0.348177 0.454054 0.000000
0.325466 0.502623 0.000000
0.301149 0.558560 0.000000
0.289156 0.625440 0.000000
0.283380 0.696549 0.000000
0.305982 0.773906 0.000000
0.353255 0.849727 0.000000
0.452263 0.911057 0.000000
0.661468 0.951487 0.000000
1.000000 0.960839 0.000000
0.000000 0.122533 0.000000
0.109806 0.124618 0.000000
0.208860 0.134964 0.000000
0.279226 0.158505 0.000000
0.337518 0.188153 0.000000
0.362229 0.220549 0.000000
0.375150 0.254928 0.000000
0.374560 0.289156 0.000000
0.365121 0.324384 0.000000
0.345550 0.359513 0.000000
0.324195 0.398604 0.000000
0.300845 0.443068 0.000000
0.283217 0.494490 0.000000
0.262221 0.555359 0.000000
0.254928 0.624850 0.000000
0.250847 0.701349 0.000000
0.278570 0.778856 0.000000
0.323232 0.857152 0.000000
0.423098 0.916643 0.000000
0.637468 0.958010 0.000000
1.000000 0.967159 0.000000
0.000000 0.149596 0.000000
0.083467 0.151552 0.000000
0.154539 0.160220 0.000000
0.208669 0.176649 0.000000
0.254771 0.196731 0.000000
0.281978 0.221681 0.000000
0.298651 0.250847 0.000000
0.303451 0.283380 0.000000
0.298419 0.319331 0.000000
0.283276 0.357623 0.000000
0.266706 0.399906 0.000000
0.249768 0.447961 0.000000
0.237645 0.501829 0.000000
0.222632 0.567285 0.000000
0.220549 0.637771 0.000000
0.221681 0.718022 0.000000
0.253885 0.791953 0.000000
0.298262 0.869861 0.000000
0.398176 0.924610 0.000000
0.616559 0.964625 0.000000
1.000000 0.972957 0.000000
0.000000 0.184275 0.000000
0.058862 0.186880 0.000000
0.110334 0.197003 0.000000
0.152020 0.213031 0.000000
0.187486 0.231283 0.000000
0.208047 0.253885 0.000000
0.221144 0.278570 0.000000
0.226094 0.305982 0.000000
0.225380 0.336752 0.000000
0.217676 0.373023 0.000000
0.209244 0.415524 0.000000
0.198994 0.466411 0.000000
0.193375 0.521703 0.000000
0.184951 0.592233 0.000000
0.188153 0.662482 0.000000
0.196731 0.745229 0.000000
0.231283 0.812514 0.000000
0.278581 0.887438 0.000000
0.378469 0.935314 0.000000
0.600528 0.971332 0.000000
1.000000 0.978351 0.000000
0.000000 0.242192 0.000000
0.032156 0.245620 0.000000
0.062200 0.251826 0.000000
0.088581 0.264240 0.000000
0.112562 0.278581 0.000000
0.130139 0.298262 0.000000
0.142848 0.323232 0.000000
0.150273 0.353255 0.000000
0.153137 0.388997 0.000000
0.151255 0.431126 0.000000
0.148973 0.477552 0.000000
0.146897 0.529961 0.000000
0.147738 0.585540 0.000000
0.149213 0.653340 0.000000
0.158505 0.720774 0.000000
0.176649 0.791331 0.000000
0.213031 0.847980 0.000000
0.264240 0.911419 0.000000
0.362499 0.948778 0.000000
0.587312 0.978259 0.000000
1.000000 0.983727 0.000000
0.000000 0.338190 0.000000
0.018436 0.342081 0.000000
0.035821 0.350244 0.000000
0.051222 0.362499 0.000000
0.064686 0.378469 0.000000
0.075390 0.398176 0.000000
0.083357 0.423098 0.000000
0.088943 0.452263 0.000000
0.092622 0.487189 0.000000
0.095008 0.528577 0.000000
0.098524 0.573594 0.000000
0.103470 0.622074 0.000000
0.110203 0.674254 0.000000
0.119992 0.732981 0.000000
0.134964 0.791140 0.000000
0.160220 0.845461 0.000000
0.197003 0.889666 0.000000
0.251826 0.937800 0.000000
0.350244 0.964179 0.000000
0.576799 0.985288 0.000000
1.000000 0.989079 0.000000
0.000000 0.566815 0.000000
0.007431 0.569507 0.000000
0.014712 0.576799 0.000000
0.021741 0.587312 0.000000
0.028668 0.600528 0.000000
0.035375 0.616559 0.000000
0.041990 0.637468 0.000000
0.048513 0.661468 0.000000
0.055251 0.689685 0.000000
0.062453 0.721981 0.000000
0.070809 0.754326 0.000000
0.080326 0.786962 0.000000
0.091609 0.821156 0.000000
0.105773 0.856650 0.000000
0.124618 0.890194 0.000000
0.151552 0.916533 0.000000
0.186880 0.941138 0.000000
0.245620 0.967844 0.000000
0.342081 0.981564 0.000000
0.569507 0.992569 0.000000
1.000000 0.994472 0.000000
0.000000 1.000000 0.000000
0.005528 1.000000 0.000000
0.010921 1.000000 0.000000
0.016273 1.000000 0.000000
0.021649 1.000000 0.000000
0.027043 1.000000 0.000000
0.032841 1.000000 0.000000
0.039161 1.000000 0.000000
0.046169 1.000000 0.000000
0.053960 1.000000 0.000000
0.063031 1.000000 0.000000
0.073934 1.000000 0.000000
0.086880 1.000000 0.000000
0.102043 1.000000 0.000000
0.122533 1.000000 0.000000
0.149596 1.000000 0.000000
0.184275 1.000000 0.000000
0.242192 1.000000 0.000000
0.338190 1.000000 0.000000
0.566815 1.000000 0.000000
1.000000 1.000000 0.000000
0.000000 0.000000 0.082500
0.433185 0.000000 0.082500
0.661810 0.000000 0.082500
0.757808 0.000000 0.082500
0.815725 0.000000 0.082500
0.850404 0.000000 0.082500
0.877467 0.000000 0.082500
0.897957 0.000000 0.082500
0.913120 0.000000 0.082500
0.926066 0.000000 0.082500
0.936969 0.000000 0.082500
0.946040 0.000000 0.082500
0.953831 0.000000 0.082500
0.960839 0.000000 0.082500
0.967159 0.000000 0.082500
0.972957 0.000000 0.082500
0.978351 0.000000 0.082500
0.983727 0.000000 0.082500
0.989079 0.000000 0.082500
0.994472 0.000000 0.082500
1.000000 0.000000 0.082500
0.000000 0.005528 0.082500
0.430493 0.007431 0.082500
0.657919 0.018436 0.082500
0.754380 0.032156 0.082500
0.813120 0.058862 0.082500
0.848448 0.083467 0.082500
0.875382 0.109806 0.082500
0.894227 0.143350 0.082500
0.908391 0.178844 0.082500
0.919674 0.213038 0.082500
0.929191 0.245674 0.082500
0.937547 0.278019 0.082500
0.944749 0.310315 0.082500
0.951487 0.338532 0.082500
0.958010 0.362532 0.082500
0.964625 0.383441 0.082500
0.971332 0.399472 0.082500
0.978259 0.412688 0.082500
0.985288 0.423201 0.082500
0.992569 0.430493 0.082500
1.000000 0.433185 0.082500
0.000000 0.010921 0.082500
0.423201 0.014712 0.082500
0.649756 0.035821 0.082500
0.748174 0.062200 0.082500
0.802997 0.110334 0.082500
0.839780 0.154539 0.082500
0.865036 0.208860 0.082500
0.880008 0.267019 0.082500
0.889797 0.325746 0.082500
0.896530 0.377926 0.082500
0.901476 0.426406 0.082500
0.904992 0.471423 0.082500
0.907378 0.512811 0.082500
0.911057 0.547737 0.082500
0.916643 0.576902 0.082500
0.924610 0.601824 0.082500
0.935314 0.621531 0.082500
0.948778 0.637501 0.082500
0.964179 0.649756 0.082500
0.981564 0.657919 0.082500
1.000000 0.661810 0.082500
0.000000 0.016273 0.082500
0.412688 0.021741 0.082500
0.637501 0.051222 0.082500
0.735760 0.088581 0.082500
0.786969 0.152020 0.082500
0.823351 0.208669 0.082500
0.841495 0.279226 0.082500
0.850787 0.346660 0.082500
0.852262 0.414460 0.082500
0.853103 0.470039 0.082500
0.851027 0.522448 0.082500
0.848745 0.568874 0.082500
0.846863 0.611003 0.082500
0.849727 0.646745 0.082500
0.857152 0.676768 0.082500
0.869861 0.701738 0.082500
0.887438 0.721419 0.082500
0.911419 0.735760 0.082500
0.937800 0.748174 0.082500
0.967844 0.754380 0.082500
1.000000 0.757808 0.082500
0.000000 0.021649 0.082500
0.399472 0.028668 0.082500
0.621531 0.064686 0.082500
0.721419 0.112562 0.082500
0.768717 0.187486 0.082500
0.803269 0.254771 0.082500
0.811847 0.337518 0.082500
0.815049 0.407767 0.082500
0.806625 0.478297 0.082500
0.801006 0.533589 0.082500
0.790756 0.584476 0.082500
0.782324 0.626977 0.082500
0.774620 0.663248 0.082500
0.773906 0.694018 0.082500
0.778856 0.721430 0.082500
0.791953 0.746115 0.082500
0.812514 0.768717 0.082500
0.847980 0.786969 0.082500
0.889666 0.802997 0.082500
0.941138 0.813120 0.082500
1.000000 0.815725 0.082500
0.000000 0.027043 0.082500
0.383441 0.035375 0.082500
0.601824 0.075390 0.082500
0.701738 0.130139 0.082500
0.746115 0.208047 0.082500
0.778319 0.281978 0.082500
0.779451 0.362229 0.082500
0.777368 0.432715 0.082500
0.762355 0.498171 0.082500
0.750232 0.552039 0.082500
0.733294 0.600094 0.082500
0.716724 0.642377 0.082500
0.701581 0.680669 0.082500
0.696549 0.716620 0.082500
0.701349 0.749153 0.082500
0.718022 0.778319 0.082500
0.745229 0.803269 0.082500
0.791331 0.823351 0.082500
0.845461 0.839780 0.082500
0.916533 0.848448 0.082500
1.000000 0.850404 0.082500
0.000000 0.032841 0.082500
0.362532 0.041990 0.082500
0.576902 0.083357 0.082500
0.676768 0.142848 0.082500
0.721430 0.221144 0.082500
0.749153 0.298651 0.082500
0.745072 0.375150 0.082500
0.737779 0.444641 0.082500
0.716783 0.505510 0.082500
0.699155 0.556932 0.082500
0.675805 0.601396 0.082500
0.654450 0.640487 0.082500
0.634879 0.675616 0.082500
0.625440 0.710844 0.082500
0.624850 0.745072 0.082500
0.637771 0.779451 0.082500
0.662482 0.811847 0.082500
0.720774 0.841495 0.082500
0.791140 0.865036 0.082500
0.890194 0.875382 0.082500
1.000000 0.877467 0.082500
0.000000 0.039161 0.082500
0.338532 0.048513 0.082500
0.547737 0.088943 0.082500
0.646745 0.150273 0.082500
0.694018 0.226094 0.082500
0.716620 0.303451 0.082500
0.710844 0.374560 0.082500
0.698851 0.441440 0.082500
0.674534 0.497377 0.082500
0.651823 0.545946 0.082500
0.623793 0.586798 0.082500
0.597032 0.624383 0.082500
0.572073 0.659821 0.082500
0.558560 0.698851 0.082500
0.555359 0.737779 0.082500
0.567285 0.777368 0.082500
0.592233 0.815049 0.082500
0.653340 0.850787 0.082500
0.732981 0.880008 0.082500
0.856650 0.894227 0.082500
1.000000 0.897957 0.082500
0.000000 0.046169 0.082500
0.310315 0.055251 0.082500
0.512811 0.092622 0.082500
0.611003 0.153137 0.082500
0.663248 0.225380 0.082500
0.680669 0.298419 0.082500
0.675616 0.365121 0.082500
0.659821 0.427927 0.082500
0.633462 0.480706 0.082500
0.606403 0.525955 0.082500
0.574902 0.563399 0.082500
0.546167 0.599031 0.082500
0.519294 0.633462 0.082500
0.502623 0.674534 0.082500
0.494490 0.716783 0.082500
0.501829 0.762355 0.082500
0.521703 0.806625 0.082500
0.585540 0.852262 0.082500
0.674254 0.889797 0.082500
0.821156 0.908391 0.082500
1.000000 0.913120 0.082500
0.000000 0.053960 0.082500
0.278019 0.062453 0.082500
0.471423 0.095008 0.082500
0.568874 0.151255 0.082500
0.626977 0.217676 0.082500
0.642377 0.283276 0.082500
0.640487 0.345550 0.082500
0.624383 0.402968 0.082500
0.599031 0.453833 0.082500
0.569328 0.496399 0.082500
0.535900 0.533046 0.082500
0.503601 0.569328 0.082500
0.474045 0.606403 0.082500
0.454054 0.651823 0.082500
0.443068 0.699155 0.082500
0.447961 0.750232 0.082500
0.466411 0.801006 0.082500
0.529961 0.853103 0.082500
0.622074 0.896530 0.082500
0.786962 0.919674 0.082500
1.000000 0.926066 0.082500
0.000000 0.063031 0.082500
0.245674 0.070809 0.082500
0.426406 0.098524 0.082500
0.522448 0.148973 0.082500
0.584476 0.209244 0.082500
0.600094 0.266706 0.082500
0.601396 0.324195 0.082500
0.586798 0.376207 0.082500
0.563399 0.425098 0.082500
0.533046 0.464100 0.082500
0.500000 0.500000 0.082500
0.466954 0.535900 0.082500
0.436601 0.574902 0.082500
0.413202 0.623793 0.082500
0.398604 0.675805 0.082500
0.399906 0.733294 0.082500
0.415524 0.790756 0.082500
0.477552 0.851027 0.082500
0.573594 0.901476 0.082500
0.754326 0.929191 0.082500
1.000000 0.936969 0.082500
0.000000 0.073934 0.082500
0.213038 0.080326 0.082500
0.377926 0.103470 0.082500
0.470039 0.146897 0.082500
0.533589 0.198994 0.082500
0.552039 0.249768 0.082500
0.556932 0.300845 0.082500
0.545946 0.348177 0.082500
0.525955 0.393597 0.082500
0.496399 0.430672 0.082500
0.464100 0.466954 0.082500
0.430672 0.503601 0.082500
0.400969 0.546167 0.082500
0.375617 0.597032 0.082500
0.359513 0.654450 0.082500
0.357623 0.716724 0.082500
0.373023 0.782324 0.082500
0.431126 0.848745 0.082500
0.528577 0.904992 0.082500
0.721981 0.937547 0.082500
1.000000 0.946040 0.082500
0.000000 0.086880 0.082500
0.178844 0.091609 0.082500
0.325746 0.110203 0.082500
0.414460 0.147738 0.082500
0.478297 0.193375 0.082500
0.498171 0.237645 0.082500
0.505510 0.283217 0.082500
0.497377 0.325466 0.082500
0.480706 0.366538 0.082500
0.453833 0.400969 0.082500
0.425098 0.436601 0.082500
0.393597 0.474045 0.082500
0.366538 0.519294 0.082500
0.340179 0.572073 0.082500
0.324384 0.634879 0.082500
0.319331 0.701581 0.082500
0.336752 0.774620 0.082500
0.388997 0.846863 0.082500
0.487189 0.907378 0.082500
0.689685 0.944749 0.082500
1.000000 0.953831 0.082500
0.000000 0.102043 0.082500
0.143350 0.105773 0.082500
0.267019 0.119992 0.082500
0.346660 0.149213 0.082500
0.407767 0.184951 0.082500
0.432715 0.222632 0.082500
0.444641 0.262221 0.082500
0.441440 0.301149 0.082500
0.427927 0.340179 0.082500
0.402968 0.375617 0.082500
0.376207 0.413202 0.082500
0.348177 0.454054 0.082500
0.325466 0.502623 0.082500
0.301149 0.558560 0.082500
0.289156 0.625440 0.082500
0.283380 0.696549 0.082500
0.305982 0.773906 0.082500
0.353255 0.849727 0.082500
0.452263 0.911057 0.082500
0.661468 0.951487 0.082500
1.000000 0.960839 0.082500
0.000000 0.122533 0.082500
0.109806 0.124618 0.082500
0.208860 0.134964 0.082500
0.279226 0.158505 0.082500