# vtk DataFile Version 2.0
Mesh for Fierro
ASCII 
DATASET UNSTRUCTURED_GRID

POINTS 2205 float
0.000000 0.000000 0.000000
0.355820 0.000000 0.000000
0.577411 0.000000 0.000000
0.692372 0.000000 0.000000
0.764743 0.000000 0.000000
0.809930 0.000000 0.000000
0.844770 0.000000 0.000000
0.870184 0.000000 0.000000
0.889924 0.000000 0.000000
0.906146 0.000000 0.000000
0.919434 0.000000 0.000000
0.931165 0.000000 0.000000
0.941310 0.000000 0.000000
0.950397 0.000000 0.000000
0.958630 0.000000 0.000000
0.966303 0.000000 0.000000
0.973344 0.000000 0.000000
0.980195 0.000000 0.000000
0.986767 0.000000 0.000000
0.993363 0.000000 0.000000
1.000000 0.000000 0.000000
0.000000 0.006637 0.000000
0.353313 0.008293 0.000000
0.574189 0.016064 0.000000
0.688839 0.027209 0.000000
0.759485 0.045167 0.000000
0.806016 0.063761 0.000000
0.840973 0.084943 0.000000
0.865661 0.110852 0.000000
0.884499 0.138477 0.000000
0.899628 0.165913 0.000000
0.912376 0.192375 0.000000
0.923531 0.219178 0.000000
0.933267 0.246367 0.000000
0.942247 0.270730 0.000000
0.950676 0.291658 0.000000
0.959000 0.310168 0.000000
0.967151 0.324727 0.000000
0.975348 0.336837 0.000000
0.983448 0.346497 0.000000
0.991707 0.353313 0.000000
1.000000 0.355820 0.000000
0.000000 0.013233 0.000000
0.346497 0.016552 0.000000
0.566225 0.031427 0.000000
0.681444 0.053157 0.000000
0.751243 0.087344 0.000000
0.798621 0.121982 0.000000
0.831486 0.165067 0.000000
0.853072 0.211561 0.000000
0.868835 0.259976 0.000000
0.880918 0.305428 0.000000
0.890528 0.349004 0.000000
0.898655 0.390858 0.000000
0.905415 0.430765 0.000000
0.912535 0.465107 0.000000
0.920616 0.494112 0.000000
0.930295 0.518961 0.000000
0.941597 0.538464 0.000000
0.954437 0.554424 0.000000
0.968573 0.566225 0.000000
0.983936 0.574189 0.000000
1.000000 0.577411 0.000000
0.000000 0.019805 0.000000
0.336837 0.024652 0.000000
0.554424 0.045563 0.000000
0.668697 0.076500 0.000000
0.735002 0.122253 0.000000
0.781333 0.168645 0.000000
0.809047 0.226269 0.000000
0.826801 0.283600 0.000000
0.836629 0.343819 0.000000
0.844302 0.396107 0.000000
0.848936 0.446782 0.000000
0.852755 0.493186 0.000000
0.856118 0.536257 0.000000
0.862556 0.573207 0.000000
0.872123 0.604559 0.000000
0.885476 0.631059 0.000000
0.902229 0.652434 0.000000
0.923500 0.668697 0.000000
0.946843 0.681444 0.000000
0.972791 0.688839 0.000000
1.000000 0.692372 0.000000
0.000000 0.026656 0.000000
0.324727 0.032849 0.000000
0.538464 0.058403 0.000000
0.652434 0.097771 0.000000
0.717483 0.153560 0.000000
0.761487 0.210668 0.000000
0.782046 0.279924 0.000000
0.795396 0.343283 0.000000
0.797438 0.409999 0.000000
0.800408 0.464585 0.000000
0.798593 0.517475 0.000000
0.797580 0.563468 0.000000
0.796641 0.604349 0.000000
0.801294 0.638677 0.000000
0.810407 0.668593 0.000000
0.825656 0.694591 0.000000
0.846440 0.717483 0.000000
0.877747 0.735002 0.000000
0.912656 0.751243 0.000000
0.954833 0.759485 0.000000
1.000000 0.764743 0.000000
0.000000 0.033697 0.000000
0.310168 0.041000 0.000000
0.518961 0.069705 0.000000
0.631059 0.114524 0.000000
0.694591 0.174344 0.000000
0.735571 0.237430 0.000000
0.750306 0.307516 0.000000
0.759495 0.372885 0.000000
0.755766 0.437475 0.000000
0.753954 0.492441 0.000000
0.746574 0.543904 0.000000
0.739611 0.589971 0.000000
0.733274 0.631895 0.000000
0.734823 0.670455 0.000000
0.744131 0.704960 0.000000
0.762570 0.735571 0.000000
0.789332 0.761487 0.000000
0.831355 0.781333 0.000000
0.878018 0.798621 0.000000
0.936239 0.806016 0.000000
1.000000 0.809930 0.000000
0.000000 0.041370 0.000000
0.291658 0.049324 0.000000
0.494112 0.079384 0.000000
0.604559 0.127877 0.000000
0.668593 0.189593 0.000000
0.704960 0.255869 0.000000
0.715785 0.325237 0.000000
0.720460 0.390941 0.000000
0.711946 0.453065 0.000000
0.705267 0.507009 0.000000
0.692335 0.556048 0.000000
0.680692 0.600110 0.000000
0.669972 0.640334 0.000000
0.668340 0.679173 0.000000
0.674763 0.715785 0.000000
0.692484 0.750306 0.000000
0.720076 0.782046 0.000000
0.773731 0.809047 0.000000
0.834933 0.831486 0.000000
0.915057 0.840973 0.000000
1.000000 0.844770 0.000000
0.000000 0.049603 0.000000
0.270730 0.057753 0.000000
0.465107 0.087465 0.000000
0.573207 0.137444 0.000000
0.638677 0.198706 0.000000
0.670455 0.265177 0.000000
0.679173 0.331660 0.000000
0.679759 0.395826 0.000000
0.668265 0.454677 0.000000
0.656827 0.506825 0.000000
0.639522 0.553400 0.000000
0.623441 0.596703 0.000000
0.608580 0.637574 0.000000
0.604174 0.679759 0.000000
0.609059 0.720460 0.000000
0.627115 0.759495 0.000000
0.656717 0.795396 0.000000
0.716400 0.826801 0.000000
0.788439 0.853072 0.000000
0.889148 0.865661 0.000000
1.000000 0.870184 0.000000
0.000000 0.058690 0.000000
0.246367 0.066733 0.000000
0.430765 0.094585 0.000000
0.536257 0.143882 0.000000
0.604349 0.203359 0.000000
0.631895 0.266726 0.000000
0.640334 0.330028 0.000000
0.637574 0.391420 0.000000
0.624237 0.447763 0.000000
0.608518 0.497601 0.000000
0.587818 0.541781 0.000000
0.569197 0.583792 0.000000
0.552237 0.624237 0.000000
0.545323 0.668265 0.000000
0.546935 0.711946 0.000000
0.562525 0.755766 0.000000
0.590001 0.797438 0.000000
0.656181 0.836629 0.000000
0.740024 0.868835 0.000000
0.861523 0.884499 0.000000
1.000000 0.889924 0.000000
0.000000 0.068835 0.000000
0.219178 0.076469 0.000000
0.390858 0.101345 0.000000
0.493186 0.147245 0.000000
0.563468 0.202420 0.000000
0.589971 0.260389 0.000000
0.600110 0.319308 0.000000
0.596703 0.376559 0.000000
0.583792 0.430803 0.000000
0.565440 0.478592 0.000000
0.542920 0.522371 0.000000
0.521408 0.565440 0.000000
0.502399 0.608518 0.000000
0.493175 0.656827 0.000000
0.492991 0.705267 0.000000
0.507559 0.753954 0.000000
0.535415 0.800408 0.000000
0.603893 0.844302 0.000000
0.694572 0.880918 0.000000
0.834087 0.899628 0.000000
1.000000 0.906146 0.000000
0.000000 0.080566 0.000000
0.192375 0.087624 0.000000
0.349004 0.109472 0.000000
0.446782 0.151064 0.000000
0.517475 0.201407 0.000000
0.543904 0.253426 0.000000
0.556048 0.307665 0.000000
0.553400 0.360478 0.000000
0.541781 0.412182 0.000000
0.522371 0.457080 0.000000
0.500000 0.500000 0.000000
0.477629 0.542920 0.000000
0.458219 0.587818 0.000000
0.446600 0.639522 0.000000
0.443952 0.692335 0.000000
0.456096 0.746574 0.000000
0.482525 0.798593 0.000000
0.553218 0.848936 0.000000
0.650996 0.890528 0.000000
0.807625 0.912376 0.000000
1.000000 0.919434 0.000000
0.000000 0.093854 0.000000
0.165913 0.100372 0.000000
0.305428 0.119082 0.000000
0.396107 0.155698 0.000000
0.464585 0.199592 0.000000
0.492441 0.246046 0.000000
0.507009 0.294733 0.000000
0.506825 0.343173 0.000000
0.497601 0.391482 0.000000
0.478592 0.434560 0.000000
0.457080 0.477629 0.000000
0.434560 0.521408 0.000000
0.416208 0.569197 0.000000
0.403297 0.623441 0.000000
0.399890 0.680692 0.000000
0.410029 0.739611 0.000000
0.436532 0.797580 0.000000
0.506814 0.852755 0.000000
0.609142 0.898655 0.000000
0.780822 0.923531 0.000000
1.000000 0.931165 0.000000
0.000000 0.110076 0.000000
0.138477 0.115501 0.000000
0.259976 0.131165 0.000000
0.343819 0.163371 0.000000
0.409999 0.202562 0.000000
0.437475 0.244234 0.000000
0.453065 0.288054 0.000000
0.454677 0.331735 0.000000
0.447763 0.375763 0.000000
0.430803 0.416208 0.000000
0.412182 0.458219 0.000000
0.391482 0.502399 0.000000
0.375763 0.552237 0.000000
0.362426 0.608580 0.000000
0.359666 0.669972 0.000000
0.368105 0.733274 0.000000
0.395651 0.796641 0.000000
0.463743 0.856118 0.000000
0.569235 0.905415 0.000000
0.753633 0.933267 0.000000
1.000000 0.941310 0.000000
0.000000 0.129816 0.000000
0.110852 0.134339 0.000000
0.211561 0.146928 0.000000
0.283600 0.173199 0.000000
0.343283 0.204604 0.000000
0.372885 0.240505 0.000000
0.390941 0.279540 0.000000
0.395826 0.320241 0.000000
0.391420 0.362426 0.000000
0.376559 0.403297 0.000000
0.360478 0.446600 0.000000
0.343173 0.493175 0.000000
0.331735 0.545323 0.000000
0.320241 0.604174 0.000000
0.320827 0.668340 0.000000
0.329545 0.734823 0.000000
0.361323 0.801294 0.000000
0.426793 0.862556 0.000000
0.534893 0.912535 0.000000
0.729270 0.942247 0.000000
1.000000 0.950397 0.000000
0.000000 0.155230 0.000000
0.084943 0.159027 0.000000
0.165067 0.168514 0.000000
0.226269 0.190953 0.000000
0.279924 0.217954 0.000000
0.307516 0.249694 0.000000
0.325237 0.284215 0.000000
0.331660 0.320827 0.000000
0.330028 0.359666 0.000000
0.319308 0.399890 0.000000
0.307665 0.443952 0.000000
0.294733 0.492991 0.000000
0.288054 0.546935 0.000000
0.279540 0.609059 0.000000
0.284215 0.674763 0.000000
0.295040 0.744131 0.000000
0.331407 0.810407 0.000000
0.395441 0.872123 0.000000
0.505888 0.920616 0.000000
0.708342 0.950676 0.000000
1.000000 0.958630 0.000000
0.000000 0.190070 0.000000
0.063761 0.193984 0.000000
0.121982 0.201379 0.000000
0.168645 0.218667 0.000000
0.210668 0.238513 0.000000
0.237430 0.264429 0.000000
0.255869 0.295040 0.000000
0.265177 0.329545 0.000000
0.266726 0.368105 0.000000
0.260389 0.410029 0.000000
0.253426 0.456096 0.000000
0.246046 0.507559 0.000000
0.244234 0.562525 0.000000
0.240505 0.627115 0.000000
0.249694 0.692484 0.000000
0.264429 0.762570 0.000000
0.305409 0.825656 0.000000
0.368941 0.885476 0.000000
0.481039 0.930295 0.000000
0.689832 0.959000 0.000000
1.000000 0.966303 0.000000
0.000000 0.235257 0.000000
0.045167 0.240515 0.000000
0.087344 0.248757 0.000000
0.122253 0.264998 0.000000
0.153560 0.282517 0.000000
0.174344 0.305409 0.000000
0.189593 0.331407 0.000000
0.198706 0.361323 0.000000
0.203359 0.395651 0.000000
0.202420 0.436532 0.000000
0.201407 0.482525 0.000000
0.199592 0.535415 0.000000
0.202562 0.590001 0.000000
0.204604 0.656717 0.000000
0.217954 0.720076 0.000000
0.238513 0.789332 0.000000
0.282517 0.846440 0.000000
0.347566 0.902229 0.000000
0.461536 0.941597 0.000000
0.675273 0.967151 0.000000
1.000000 0.973344 0.000000
0.000000 0.307628 0.000000
0.027209 0.311161 0.000000
0.053157 0.318556 0.000000
0.076500 0.331303 0.000000
0.097771 0.347566 0.000000
0.114524 0.368941 0.000000
0.127877 0.395441 0.000000
0.137444 0.426793 0.000000
0.143882 0.463743 0.000000
[...]
POINT_DATA 2205 
VECTORS pos float 
0.000000 0.000000 0.000000
0.355820 0.000000 0.000000
0.577411 0.000000 0.000000
0.692372 0.000000 0.000000
0.764743 0.000000 0.000000
0.809930 0.000000 0.000000
0.844770 0.000000 0.000000
0.870184 0.000000 0.000000
0.889924 0.000000 0.000000
0.906146 0.000000 0.000000
0.919434 0.000000 0.000000
0.931165 0.000000 0.000000
0.941310 0.000000 0.000000
0.950397 0.000000 0.000000
0.958630 0.000000 0.000000
0.966303 0.000000 0.000000
0.973344 0.000000 0.000000
0.980195 0.000000 0.000000
0.986767 0.000000 0.000000
0.993363 0.000000 0.000000
1.000000 0.000000 0.000000
0.000000 0.006637 0.000000
0.353313 0.008293 0.000000
0.574189 0.016064 0.000000
0.688839 0.027209 0.000000
0.759485 0.045167 0.000000
0.806016 0.063761 0.000000
0.840973 0.084943 0.000000
0.865661 0.110852 0.000000
0.884499 0.138477 0.000000
0.899628 0.165913 0.000000
0.912376 0.192375 0.000000
0.923531 0.219178 0.000000
0.933267 0.246367 0.000000
0.942247 0.270730 0.000000
0.950676 0.291658 0.000000
0.959000 0.310168 0.000000
0.967151 0.324727 0.000000
0.975348 0.336837 0.000000
0.983448 0.346497 0.000000
0.991707 0.353313 0.000000
1.000000 0.355820 0.000000
0.000000 0.013233 0.000000
0.346497 0.016552 0.000000
0.566225 0.031427 0.000000
0.681444 0.053157 0.000000
0.751243 0.087344 0.000000
0.798621 0.121982 0.000000
0.831486 0.165067 0.000000
0.853072 0.211561 0.000000
0.868835 0.259976 0.000000
0.880918 0.305428 0.000000
0.890528 0.349004 0.000000
0.898655 0.390858 0.000000
0.905415 0.430765 0.000000
0.912535 0.465107 0.000000
0.920616 0.494112 0.000000
0.930295 0.518961 0.000000
0.941597 0.538464 0.000000
0.954437 0.554424 0.000000
0.968573 0.566225 0.000000
0.983936 0.574189 0.000000
1.000000 0.577411 0.000000
0.000000 0.019805 0.000000
0.336837 0.024652 0.000000
0.554424 0.045563 0.000000
0.668697 0.076500 0.000000
0.735002 0.122253 0.000000
0.781333 0.168645 0.000000
0.809047 0.226269 0.000000
0.826801 0.283600 0.000000
0.836629 0.343819 0.000000
0.844302 0.396107 0.000000
0.848936 0.446782 0.000000
0.852755 0.493186 0.000000
0.856118 0.536257 0.000000
0.862556 0.573207 0.000000
0.872123 0.604559 0.000000
0.885476 0.631059 0.000000
0.902229 0.652434 0.000000
0.923500 0.668697 0.000000
0.946843 0.681444 0.000000
0.972791 0.688839 0.000000
1.000000 0.692372 0.000000
0.000000 0.026656 0.000000
0.324727 0.032849 0.000000
0.538464 0.058403 0.000000
0.652434 0.097771 0.000000
0.717483 0.153560 0.000000
0.761487 0.210668 0.000000
0.782046 0.279924 0.000000
0.795396 0.343283 0.000000
0.797438 0.409999 0.000000
0.800408 0.464585 0.000000
0.798593 0.517475 0.000000
0.797580 0.563468 0.000000
0.796641 0.604349 0.000000
0.801294 0.638677 0.000000
0.810407 0.668593 0.000000
0.825656 0.694591 0.000000
0.846440 0.717483 0.000000
0.877747 0.735002 0.000000
0.912656 0.751243 0.000000
0.954833 0.759485 0.000000
1.000000 0.764743 0.000000
0.000000 0.033697 0.000000
0.310168 0.041000 0.000000
0.518961 0.069705 0.000000
0.631059 0.114524 0.000000
0.694591 0.174344 0.000000
0.735571 0.237430 0.000000
0.750306 0.307516 0.000000
0.759495 0.372885 0.000000
0.755766 0.437475 0.000000
0.753954 0.492441 0.000000
0.746574 0.543904 0.000000
0.739611 0.589971 0.000000
0.733274 0.631895 0.000000
0.734823 0.670455 0.000000
0.744131 0.704960 0.000000
0.762570 0.735571 0.000000
0.789332 0.761487 0.000000
0.831355 0.781333 0.000000
0.878018 0.798621 0.000000
0.936239 0.806016 0.000000
1.000000 0.809930 0.000000
0.000000 0.041370 0.000000
0.291658 0.049324 0.000000
0.494112 0.079384 0.000000
0.604559 0.127877 0.000000
0.668593 0.189593 0.000000
0.704960 0.255869 0.000000
0.715785 0.325237 0.000000
0.720460 0.390941 0.000000
0.711946 0.453065 0.000000
0.705267 0.507009 0.000000
0.692335 0.556048 0.000000
0.680692 0.600110 0.000000
0.669972 0.640334 0.000000
0.668340 0.679173 0.000000
0.674763 0.715785 0.000000
0.692484 0.750306 0.000000
0.720076 0.782046 0.000000
0.773731 0.809047 0.000000
0.834933 0.831486 0.000000
0.915057 0.840973 0.000000
1.000000 0.844770 0.000000
0.000000 0.049603 0.000000
0.270730 0.057753 0.000000
0.465107 0.087465 0.000000
0.573207 0.137444 0.000000
0.638677 0.198706 0.000000
0.670455 0.265177 0.000000
0.679173 0.331660 0.000000
0.679759 0.395826 0.000000
0.668265 0.454677 0.000000
0.656827 0.506825 0.000000
0.639522 0.553400 0.000000
0.623441 0.596703 0.000000
0.608580 0.637574 0.000000
0.604174 0.679759 0.000000
0.609059 0.720460 0.000000
0.627115 0.759495 0.000000
0.656717 0.795396 0.000000
0.716400 0.826801 0.000000
0.788439 0.853072 0.000000
0.889148 0.865661 0.000000
1.000000 0.870184 0.000000
0.000000 0.058690 0.000000
0.246367 0.066733 0.000000
0.430765 0.094585 0.000000
0.536257 0.143882 0.000000
0.604349 0.203359 0.000000
0.631895 0.266726 0.000000
0.640334 0.330028 0.000000
0.637574 0.391420 0.000000
0.624237 0.447763 0.000000
0.608518 0.497601 0.000000
0.587818 0.541781 0.000000
0.569197 0.583792 0.000000
0.552237 0.624237 0.000000
0.545323 0.668265 0.000000
0.546935 0.711946 0.000000
0.562525 0.755766 0.000000
0.590001 0.797438 0.000000
0.656181 0.836629 0.000000
0.740024 0.868835 0.000000
0.861523 0.884499 0.000000
1.000000 0.889924 0.000000
0.000000 0.068835 0.000000
0.219178 0.076469 0.000000
0.390858 0.101345 0.000000
0.493186 0.147245 0.000000
0.563468 0.202420 0.000000
0.589971 0.260389 0.000000
0.600110 0.319308 0.000000
0.596703 0.376559 0.000000
0.583792 0.430803 0.000000
0.565440 0.478592 0.000000
0.542920 0.522371 0.000000
0.521408 0.565440 0.000000
0.502399 0.608518 0.000000
0.493175 0.656827 0.000000
0.492991 0.705267 0.000000
0.507559 0.753954 0.000000
0.535415 0.800408 0.000000
0.603893 0.844302 0.000000
0.694572 0.880918 0.000000
0.834087 0.899628 0.000000
1.000000 0.906146 0.000000
0.000000 0.080566 0.000000
0.192375 0.087624 0.000000
0.349004 0.109472 0.000000
0.446782 0.151064 0.000000
0.517475 0.201407 0.000000
0.543904 0.253426 0.000000
0.556048 0.307665 0.000000
0.553400 0.360478 0.000000
0.541781 0.412182 0.000000
0.522371 0.457080 0.000000
0.500000 0.500000 0.000000
0.477629 0.542920 0.000000
0.458219 0.587818 0.000000
0.446600 0.639522 0.000000
0.443952 0.692335 0.000000
0.456096 0.746574 0.000000
0.482525 0.798593 0.000000
0.553218 0.848936 0.000000
0.650996 0.890528 0.000000
0.807625 0.912376 0.000000
1.000000 0.919434 0.000000
0.000000 0.093854 0.000000
0.165913 0.100372 0.000000
0.305428 0.119082 0.000000
0.396107 0.155698 0.000000
0.464585 0.199592 0.000000
0.492441 0.246046 0.000000
0.507009 0.294733 0.000000
0.506825 0.343173 0.000000
0.497601 0.391482 0.000000
0.478592 0.434560 0.000000
0.457080 0.477629 0.000000
0.434560 0.521408 0.000000
0.416208 0.569197 0.000000
0.403297 0.623441 0.000000
0.399890 0.680692 0.000000
0.410029 0.739611 0.000000
0.436532 0.797580 0.000000
0.506814 0.852755 0.000000
0.609142 0.898655 0.000000
0.780822 0.923531 0.000000
1.000000 0.931165 0.000000
0.000000 0.110076 0.000000
0.138477 0.115501 0.000000
0.259976 0.131165 0.000000
0.343819 0.163371 0.000000
0.409999 0.202562 0.000000
0.437475 0.244234 0.000000
0.453065 0.288054 0.000000
0.454677 0.331735 0.000000
0.447763 0.375763 0.000000
0.430803 0.416208 0.000000
0.412182 0.458219 0.000000
0.391482 0.502399 0.000000
0.375763 0.552237 0.000000
0.362426 0.608580 0.000000
0.359666 0.669972 0.000000
0.368105 0.733274 0.000000
0.395651 0.796641 0.000000
0.463743 0.856118 0.000000
0.569235 0.905415 0.000000
0.753633 0.933267 0.000000
1.000000 0.941310 0.000000
0.000000 0.129816 0.000000
0.110852 0.134339 0.000000
0.211561 0.146928 0.000000
0.283600 0.173199 0.000000
0.343283 0.204604 0.000000
0.372885 0.240505 0.000000
0.390941 0.279540 0.000000
0.395826 0.320241 0.000000
0.391420 0.362426 0.000000
0.376559 0.403297 0.000000
0.360478 0.446600 0.000000
0.343173 0.493175 0.000000
0.331735 0.545323 0.000000
0.320241 0.604174 0.000000
0.320827 0.668340 0.000000
0.329545 0.734823 0.000000
0.361323 0.801294 0.000000
0.426793 0.862556 0.000000
0.534893 0.912535 0.000000
0.729270 0.942247 0.000000
1.000000 0.950397 0.000000
0.000000 0.155230 0.000000
0.084943 0.159027 0.000000
0.165067 0.168514 0.000000
0.226269 0.190953 0.000000
0.279924 0.217954 0.000000
0.307516 0.249694 0.000000
0.325237 0.284215 0.000000
0.331660 0.320827 0.000000
0.330028 0.359666 0.000000
0.319308 0.399890 0.000000
0.307665 0.443952 0.000000
0.294733 0.492991 0.000000
0.288054 0.546935 0.000000
0.279540 0.609059 0.000000
0.284215 0.674763 0.000000
0.295040 0.744131 0.000000
0.331407 0.810407 0.000000
0.395441 0.872123 0.000000
0.505888 0.920616 0.000000
0.708342 0.950676 0.000000
1.000000 0.958630 0.000000
0.000000 0.190070 0.000000
0.063761 0.193984 0.000000
0.121982 0.201379 0.000000
0.168645 0.218667 0.000000
0.210668 0.238513 0.000000
0.237430 0.264429 0.000000
0.255869 0.295040 0.000000
0.265177 0.329545 0.000000
0.266726 0.368105 0.000000
0.260389 0.410029 0.000000
0.253426 0.456096 0.000000
0.246046 0.507559 0.000000
0.244234 0.562525 0.000000
0.240505 0.627115 0.000000
0.249694 0.692484 0.000000
0.264429 0.762570 0.000000
0.305409 0.825656 0.000000
0.368941 0.885476 0.000000
0.481039 0.930295 0.000000
0.689832 0.959000 0.000000
1.000000 0.966303 0.000000
0.000000 0.235257 0.000000
0.045167 0.240515 0.000000
0.087344 0.248757 0.000000
0.122253 0.264998 0.000000
0.153560 0.282517 0.000000
0.174344 0.305409 0.000000
0.189593 0.331407 0.000000
0.198706 0.361323 0.000000
0.203359 0.395651 0.000000
0.202420 0.436532 0.000000
0.201407 0.482525 0.000000
0.199592 0.535415 0.000000
0.202562 0.590001 0.000000
0.204604 0.656717 0.000000
0.217954 0.720076 0.000000
0.238513 0.789332 0.000000
0.282517 0.846440 0.000000
0.347566 0.902229 0.000000
0.461536 0.941597 0.000000
0.675273 0.967151 0.000000
1.000000 0.973344 0.000000
0.000000 0.307628 0.000000
0.027209 0.311161 0.000000
0.053157 0.318556 0.000000
0.076500 0.331303 0.000000
0.097771 0.347566 0.000000
0.114524 0.368941 0.000000
0.127877 0.395441 0.000000
0.137444 0.426793 0.000000
0.143882 0.463743 0.000000
0.147245 0.506814 0.000000
0.151064 0.553218 0.000000
0.155698 0.603893 0.000000
0.163371 0.656181 0.000000
0.173199 0.716400 0.000000
0.190953 0.773731 0.000000
0.218667 0.831355 0.000000
0.264998 0.877747 0.000000
0.331303 0.923500 0.000000
0.445576 0.954437 0.000000
0.663163 0.975348 0.000000
1.000000 0.980195 0.000000
0.000000 0.422589 0.000000
0.016064 0.425811 0.000000
0.031427 0.433775 0.000000
0.045563 0.445576 0.000000
0.058403 0.461536 0.000000
0.069705 0.481039 0.000000
0.079384 0.505888 0.000000
0.087465 0.534893 0.000000
0.094585 0.569235 0.000000
0.101345 0.609142 0.000000
0.109472 0.650996 0.000000
0.119082 0.694572 0.000000
0.131165 0.740024 0.000000
0.146928 0.788439 0.000000
0.168514 0.834933 0.000000
0.201379 0.878018 0.000000
0.248757 0.912656 0.000000
0.318556 0.946843 0.000000
0.433775 0.968573 0.000000
0.653503 0.983448 0.000000
1.000000 0.986767 0.000000
0.000000 0.644180 0.000000
0.008293 0.646687 0.000000
0.016552 0.653503 0.000000
0.024652 0.663163 0.000000
0.032849 0.675273 0.000000
0.041000 0.689832 0.000000
0.049324 0.708342 0.000000
0.057753 0.729270 0.000000
0.066733 0.753633 0.000000
0.076469 0.780822 0.000000
0.087624 0.807625 0.000000
0.100372 0.834087 0.000000
0.115501 0.861523 0.000000
0.134339 0.889148 0.000000
0.159027 0.915057 0.000000
0.193984 0.936239 0.000000
0.240515 0.954833 0.000000
0.311161 0.972791 0.000000
0.425811 0.983936 0.000000
0.646687 0.991707 0.000000
1.000000 0.993363 0.000000
0.000000 1.000000 0.000000
0.006637 1.000000 0.000000
0.013233 1.000000 0.000000
0.019805 1.000000 0.000000
0.026656 1.000000 0.000000
0.033697 1.000000 0.000000
0.041370 1.000000 0.000000
0.049603 1.000000 0.000000
0.058690 1.000000 0.000000
0.068835 1.000000 0.000000
0.080566 1.000000 0.000000
0.093854 1.000000 0.000000
0.110076 1.000000 0.000000
0.129816 1.000000 0.000000
0.155230 1.000000 0.000000
0.190070 1.000000 0.000000
0.235257 1.000000 0.000000
0.307628 1.000000 0.000000
0.422589 1.000000 0.000000
0.644180 1.000000 0.000000
1.000000 1.000000 0.000000
0.000000 0.000000 0.082500
0.355820 0.000000 0.082500
0.577411 0.000000 0.082500
0.692372 0.000000 0.082500
0.764743 0.000000 0.082500
0.809930 0.000000 0.082500
0.844770 0.000000 0.082500
0.870184 0.000000 0.082500
0.889924 0.000000 0.082500
0.906146 0.000000 0.082500
0.919434 0.000000 0.082500
0.931165 0.000000 0.082500
0.941310 0.000000 0.082500
0.950397 0.000000 0.082500
0.958630 0.000000 0.082500
0.966303 0.000000 0.082500
0.973344 0.000000 0.082500
0.980195 0.000000 0.082500
0.986767 0.000000 0.082500
0.993363 0.000000 0.082500
1.000000 0.000000 0.082500
0.000000 0.006637 0.082500
0.353313 0.008293 0.082500
0.574189 0.016064 0.082500
0.688839 0.027209 0.082500
0.759485 0.045167 0.082500
0.806016 0.063761 0.082500
0.840973 0.084943 0.082500
0.865661 0.110852 0.082500
0.884499 0.138477 0.082500
0.899628 0.165913 0.082500
0.912376 0.192375 0.082500
0.923531 0.219178 0.082500
0.933267 0.246367 0.082500
0.942247 0.270730 0.082500
0.950676 0.291658 0.082500
0.959000 0.310168 0.082500
0.967151 0.324727 0.082500
0.975348 0.336837 0.082500
0.983448 0.346497 0.082500
0.991707 0.353313 0.082500
1.000000 0.355820 0.082500
0.000000 0.013233 0.082500
0.346497 0.016552 0.082500
0.566225 0.031427 0.082500
0.681444 0.053157 0.082500
0.751243 0.087344 0.082500
0.798621 0.121982 0.082500
0.831486 0.165067 0.082500
0.853072 0.211561 0.082500
0.868835 0.259976 0.082500
0.880918 0.305428 0.082500
0.890528 0.349004 0.082500
0.898655 0.390858 0.082500
0.905415 0.430765 0.082500
0.912535 0.465107 0.082500
0.920616 0.494112 0.082500
0.930295 0.518961 0.082500
0.941597 0.538464 0.082500
0.954437 0.554424 0.082500
0.968573 0.566225 0.082500
0.983936 0.574189 0.082500
1.000000 0.577411 0.082500
0.000000 0.019805 0.082500
0.336837 0.024652 0.082500
0.554424 0.045563 0.082500
0.668697 0.076500 0.082500
0.735002 0.122253 0.082500
0.781333 0.168645 0.082500
0.809047 0.226269 0.082500
0.826801 0.283600 0.082500
0.836629 0.343819 0.082500
0.844302 0.396107 0.082500
0.848936 0.446782 0.082500
0.852755 0.493186 0.082500
0.856118 0.536257 0.082500
0.862556 0.573207 0.082500
0.872123 0.604559 0.082500
0.885476 0.631059 0.082500
0.902229 0.652434 0.082500
0.923500 0.668697 0.082500
0.946843 0.681444 0.082500
0.972791 0.688839 0.082500
1.000000 0.692372 0.082500
0.000000 0.026656 0.082500
0.324727 0.032849 0.082500
0.538464 0.058403 0.082500
0.652434 0.097771 0.082500
0.717483 0.153560 0.082500
0.761487 0.210668 0.082500
0.782046 0.279924 0.082500
0.795396 0.343283 0.082500
0.797438 0.409999 0.082500
0.800408 0.464585 0.082500
0.798593 0.517475 0.082500
0.797580 0.563468 0.082500
0.796641 0.604349 0.082500
0.801294 0.638677 0.082500
0.810407 0.668593 0.082500
0.825656 0.694591 0.082500
0.846440 0.717483 0.082500
0.877747 0.735002 0.082500
0.912656 0.751243 0.082500
0.954833 0.759485 0.082500
1.000000 0.764743 0.082500
0.000000 0.033697 0.082500
0.310168 0.041000 0.082500
0.518961 0.069705 0.082500
0.631059 0.114524 0.082500
0.694591 0.174344 0.082500
0.735571 0.237430 0.082500
0.750306 0.307516 0.082500
0.759495 0.372885 0.082500
0.755766 0.437475 0.082500
0.753954 0.492441 0.082500
0.746574 0.543904 0.082500
0.739611 0.589971 0.082500
0.733274 0.631895 0.082500
0.734823 0.670455 0.082500
0.744131 0.704960 0.082500
0.762570 0.735571 0.082500
0.789332 0.761487 0.082500
0.831355 0.781333 0.082500
0.878018 0.798621 0.082500
0.936239 0.806016 0.082500
1.000000 0.809930 0.082500
0.000000 0.041370 0.082500
0.291658 0.049324 0.082500
0.494112 0.079384 0.082500
0.604559 0.127877 0.082500
0.668593 0.189593 0.082500
0.704960 0.255869 0.082500
0.715785 0.325237 0.082500
0.720460 0.390941 0.082500
0.711946 0.453065 0.082500
0.705267 0.507009 0.082500
0.692335 0.556048 0.082500
0.680692 0.600110 0.082500
0.669972 0.640334 0.082500
0.668340 0.679173 0.082500
0.674763 0.715785 0.082500
0.692484 0.750306 0.082500
0.720076 0.782046 0.082500
0.773731 0.809047 0.082500
0.834933 0.831486 0.082500
0.915057 0.840973 0.082500
1.000000 0.844770 0.082500
0.000000 0.049603 0.082500
0.270730 0.057753 0.082500
0.465107 0.087465 0.082500
0.573207 0.137444 0.082500
0.638677 0.198706 0.082500
0.670455 0.265177 0.082500
0.679173 0.331660 0.082500
0.679759 0.395826 0.082500
0.668265 0.454677 0.082500
0.656827 0.506825 0.082500
0.639522 0.553400 0.082500
0.623441 0.596703 0.082500
0.608580 0.637574 0.082500
0.604174 0.679759 0.082500
0.609059 0.720460 0.082500
0.627115 0.759495 0.082500
0.656717 0.795396 0.082500
0.716400 0.826801 0.082500
0.788439 0.853072 0.082500
0.889148 0.865661 0.082500
1.000000 0.870184 0.082500
0.000000 0.058690 0.082500
0.246367 0.066733 0.082500
0.430765 0.094585 0.082500
0.536257 0.143882 0.082500
0.604349 0.203359 0.082500
0.631895 0.266726 0.082500
0.640334 0.330028 0.082500
0.637574 0.391420 0.082500
0.624237 0.447763 0.082500
0.608518 0.497601 0.082500
0.587818 0.541781 0.082500
0.569197 0.583792 0.082500
0.552237 0.624237 0.082500
0.545323 0.668265 0.082500
0.546935 0.711946 0.082500
0.562525 0.755766 0.082500
0.590001 0.797438 0.082500
0.656181 0.836629 0.082500
0.740024 0.868835 0.082500
0.861523 0.884499 0.082500
1.000000 0.889924 0.082500
0.000000 0.068835 0.082500
0.219178 0.076469 0.082500
0.390858 0.101345 0.082500
0.493186 0.147245 0.082500
0.563468 0.202420 0.082500
0.589971 0.260389 0.082500
0.600110 0.319308 0.082500
0.596703 0.376559 0.082500
0.583792 0.430803 0.082500
0.565440 0.478592 0.082500
0.542920 0.522371 0.082500
0.521408 0.565440 0.082500
0.502399 0.608518 0.082500
0.493175 0.656827 0.082500
0.492991 0.705267 0.082500
0.507559 0.753954 0.082500
0.535415 0.800408 0.082500
0.603893 0.844302 0.082500
0.694572 0.880918 0.082500
0.834087 0.899628 0.082500
1.000000 0.906146 0.082500
0.000000 0.080566 0.082500
0.192375 0.087624 0.082500
0.349004 0.109472 0.082500
0.446782 0.151064 0.082500
0.517475 0.201407 0.082500
0.543904 0.253426 0.082500
0.556048 0.307665 0.082500
0.553400 0.360478 0.082500
0.541781 0.412182 0.082500
0.522371 0.457080 0.082500
0.500000 0.500000 0.082500
0.477629 0.542920 0.082500
0.458219 0.587818 0.082500
0.446600 0.639522 0.082500
0.443952 0.692335 0.082500
0.456096 0.746574 0.082500
0.482525 0.798593 0.082500
0.553218 0.848936 0.082500
0.650996 0.890528 0.082500
0.807625 0.912376 0.082500
1.000000 0.919434 0.082500
0.000000 0.093854 0.082500
0.165913 0.100372 0.082500
0.305428 0.119082 0.082500
0.396107 0.155698 0.082500
0.464585 0.199592 0.082500
0.492441 0.246046 0.082500
0.507009 0.294733 0.082500
0.506825 0.343173 0.082500
0.497601 0.391482 0.082500
0.478592 0.434560 0.082500
0.457080 0.477629 0.082500
0.434560 0.521408 0.082500
0.416208 0.569197 0.082500
0.403297 0.623441 0.082500
0.399890 0.680692 0.082500
0.410029 0.739611 0.082500
0.436532 0.797580 0.082500
0.506814 0.852755 0.082500
0.609142 0.898655 0.082500
0.780822 0.923531 0.082500
1.000000 0.931165 0.082500
0.000000 0.110076 0.082500
0.138477 0.115501 0.082500
0.259976 0.131165 0.082500
0.343819 0.163371 0.082500
0.409999 0.202562 0.082500
0.437475 0.244234 0.082500
0.453065 0.288054 0.082500
0.454677 0.331735 0.082500
0.447763 0.375763 0.082500
0.430803 0.416208 0.082500
0.412182 0.458219 0.082500
0.391482 0.502399 0.082500
0.375763 0.552237 0.082500
0.362426 0.608580 0.082500
0.359666 0.669972 0.082500
0.368105 0.733274 0.082500
0.395651 0.796641 0.082500
0.463743 0.856118 0.082500
0.569235 0.905415 0.082500
0.753633 0.933267 0.082500
1.000000 0.941310 0.082500
0.000000 0.129816 0.082500
0.110852 0.134339 0.082500
0.211561 0.146928 0.082500
0.283600 0.173199 0.082500
0.343283 0.204604 0.082500
0.372885 0.240505 0.082500
0.390941 0.279540 0.082500
0.395826 0.320241 0.082500
0.391420 0.362426 0.082500
0.376559 0.403297 0.082500
0.360478 0.446600 0.082500
0.343173 0.493175 0.082500
0.331735 0.545323 0.082500
0.320241 0.604174 0.082500
0.320827 0.668340 0.082500
0.329545 0.734823 0.082500
0.361323 0.801294 0.082500
0.426793 0.862556 0.082500
0.534893 0.912535 0.082500
0.729270 0.942247 0.082500
1.000000 0.950397 0.082500
0.000000 0.155230 0.082500
0.084943 0.159027 0.082500
0.165067 0.168514 0.082500
0.226269 0.190953 0.082500