# vtk DataFile Version 2.0
Mesh for Fierro
ASCII 
DATASET UNSTRUCTURED_GRID

POINTS 2205 float
0.000000 0.000000 0.000000
0.527121 0.000000 0.000000
0.906014 0.000000 0.000000
0.944266 0.000000 0.000000
0.952835 0.000000 0.000000
0.960934 0.000000 0.000000
0.967365 0.000000 0.000000
0.973440 0.000000 0.000000
0.978067 0.000000 0.000000
0.981791 0.000000 0.000000
0.984993 0.000000 0.000000
0.987134 0.000000 0.000000
0.988314 0.000000 0.000000
0.989025 0.000000 0.000000
0.989500 0.000000 0.000000
0.989941 0.000000 0.000000
0.990558 0.000000 0.000000
0.991552 0.000000 0.000000
0.993640 0.000000 0.000000
0.997691 0.000000 0.000000
1.000000 0.000000 0.000000
0.000000 0.002309 0.000000
0.584362 0.004973 0.000000
0.917839 0.044116 0.000000
0.910311 0.160491 0.000000
0.925982 0.198161 0.000000
0.934053 0.259272 0.000000
0.939093 0.317074 0.000000
0.939581 0.393009 0.000000
0.939911 0.466528 0.000000
0.941761 0.522263 0.000000
0.944148 0.575763 0.000000
0.947243 0.621785 0.000000
0.951430 0.651676 0.000000
0.955869 0.678715 0.000000
0.960682 0.698743 0.000000
0.965574 0.715037 0.000000
0.971249 0.719169 0.000000
0.978679 0.699936 0.000000
0.987116 0.659281 0.000000
0.995027 0.584362 0.000000
1.000000 0.527121 0.000000
0.000000 0.006360 0.000000
0.659281 0.012884 0.000000
0.908553 0.086778 0.000000
0.880431 0.227301 0.000000
0.912844 0.295335 0.000000
0.914678 0.436028 0.000000
0.909420 0.548652 0.000000
0.908328 0.633332 0.000000
0.900976 0.698153 0.000000
0.896718 0.736303 0.000000
0.884420 0.762582 0.000000
0.874243 0.775870 0.000000
0.877846 0.790022 0.000000
0.877617 0.804846 0.000000
0.876935 0.819735 0.000000
0.876813 0.835587 0.000000
0.879283 0.854375 0.000000
0.890897 0.880781 0.000000
0.913222 0.908553 0.000000
0.955884 0.917839 0.000000
1.000000 0.906014 0.000000
0.000000 0.008448 0.000000
0.699936 0.021321 0.000000
0.880781 0.109103 0.000000
0.880546 0.285321 0.000000
0.892645 0.433567 0.000000
0.882339 0.540173 0.000000
0.872742 0.621889 0.000000
0.849992 0.676088 0.000000
0.815067 0.713731 0.000000
0.782421 0.743857 0.000000
0.732390 0.775720 0.000000
0.690389 0.806603 0.000000
0.685903 0.823723 0.000000
0.681083 0.839574 0.000000
0.680438 0.853514 0.000000
0.683696 0.865819 0.000000
0.690343 0.875918 0.000000
0.714679 0.880546 0.000000
0.772699 0.880431 0.000000
0.839509 0.910311 0.000000
1.000000 0.944266 0.000000
0.000000 0.009442 0.000000
0.719169 0.028751 0.000000
0.854375 0.120717 0.000000
0.875918 0.309657 0.000000
0.852946 0.478847 0.000000
0.851589 0.556138 0.000000
0.829277 0.645966 0.000000
0.763899 0.701488 0.000000
0.708139 0.735537 0.000000
0.665445 0.759666 0.000000
0.632320 0.775122 0.000000
0.599029 0.779065 0.000000
0.567521 0.787274 0.000000
0.544033 0.797064 0.000000
0.528350 0.810027 0.000000
0.518029 0.827270 0.000000
0.521153 0.852946 0.000000
0.566433 0.892645 0.000000
0.704665 0.912844 0.000000
0.801839 0.925982 0.000000
1.000000 0.952835 0.000000
0.000000 0.010059 0.000000
0.715037 0.034426 0.000000
0.835587 0.123187 0.000000
0.865819 0.316304 0.000000
0.827270 0.481971 0.000000
0.820208 0.575720 0.000000
0.791134 0.651894 0.000000
0.715273 0.689084 0.000000
0.659267 0.713204 0.000000
0.608980 0.730564 0.000000
0.549190 0.733552 0.000000
0.495254 0.740719 0.000000
0.450156 0.749423 0.000000
0.425959 0.767631 0.000000
0.413456 0.789645 0.000000
0.424280 0.820208 0.000000
0.443862 0.851589 0.000000
0.459827 0.882339 0.000000
0.563972 0.914678 0.000000
0.740728 0.934053 0.000000
1.000000 0.960934 0.000000
0.000000 0.010500 0.000000
0.698743 0.039318 0.000000
0.819735 0.123065 0.000000
0.853514 0.319562 0.000000
0.810027 0.471650 0.000000
0.789645 0.586544 0.000000
0.741981 0.647816 0.000000
0.670937 0.666807 0.000000
0.610991 0.688032 0.000000
0.554130 0.695209 0.000000
0.500211 0.693115 0.000000
0.456462 0.698129 0.000000
0.416757 0.697953 0.000000
0.380496 0.715052 0.000000
0.352184 0.741981 0.000000
0.348106 0.791134 0.000000
0.354034 0.829277 0.000000
0.378111 0.872742 0.000000
0.451348 0.909420 0.000000
0.682926 0.939093 0.000000
1.000000 0.967365 0.000000
0.000000 0.010975 0.000000
0.678715 0.044131 0.000000
0.804846 0.122383 0.000000
0.839574 0.318917 0.000000
0.797064 0.455967 0.000000
0.767631 0.574041 0.000000
0.715052 0.619504 0.000000
0.647572 0.637662 0.000000
0.585771 0.652452 0.000000
0.531938 0.650740 0.000000
0.479687 0.643189 0.000000
0.434494 0.636629 0.000000
0.395252 0.633962 0.000000
0.362338 0.647572 0.000000
0.333193 0.670937 0.000000
0.310916 0.715273 0.000000
0.298512 0.763899 0.000000
0.323912 0.849992 0.000000
0.366668 0.908328 0.000000
0.606991 0.939581 0.000000
1.000000 0.973440 0.000000
0.000000 0.011686 0.000000
0.651676 0.048570 0.000000
0.790022 0.122154 0.000000
0.823723 0.314097 0.000000
0.787274 0.432479 0.000000
0.749423 0.549844 0.000000
0.697953 0.583243 0.000000
0.633962 0.604748 0.000000
0.573760 0.606934 0.000000
0.523118 0.603866 0.000000
0.477950 0.593469 0.000000
0.435419 0.582303 0.000000
0.393066 0.573760 0.000000
0.347548 0.585771 0.000000
0.311968 0.610991 0.000000
0.286796 0.659267 0.000000
0.264463 0.708139 0.000000
0.286269 0.815067 0.000000
0.301847 0.900976 0.000000
0.533472 0.939911 0.000000
1.000000 0.978067 0.000000
0.000000 0.012866 0.000000
0.621785 0.052757 0.000000
0.775870 0.125757 0.000000
0.806603 0.309611 0.000000
0.779065 0.400971 0.000000
0.740719 0.504746 0.000000
0.698129 0.543538 0.000000
0.636629 0.565506 0.000000
0.582303 0.564581 0.000000
0.531787 0.559077 0.000000
0.485295 0.544849 0.000000
0.440923 0.531787 0.000000
0.396134 0.523118 0.000000
0.349260 0.531938 0.000000
0.304791 0.554130 0.000000
0.269436 0.608980 0.000000
0.240334 0.665445 0.000000
0.256143 0.782421 0.000000
0.263697 0.896718 0.000000
0.477737 0.941761 0.000000
1.000000 0.981791 0.000000
0.000000 0.015007 0.000000
0.575763 0.055852 0.000000
0.762582 0.115580 0.000000
0.775720 0.267610 0.000000
0.775122 0.367680 0.000000
0.733552 0.450810 0.000000
0.693115 0.499789 0.000000
0.643189 0.520313 0.000000
0.593469 0.522050 0.000000
0.544849 0.514705 0.000000
0.500000 0.500000 0.000000
0.455151 0.485295 0.000000
0.406531 0.477950 0.000000
0.356811 0.479687 0.000000
0.306885 0.500211 0.000000
0.266448 0.549190 0.000000
0.224878 0.632320 0.000000
0.224280 0.732390 0.000000
0.237418 0.884420 0.000000
0.424237 0.944148 0.000000
1.000000 0.984993 0.000000
0.000000 0.018209 0.000000
0.522263 0.058239 0.000000
0.736303 0.103282 0.000000
0.743857 0.217579 0.000000
0.759666 0.334555 0.000000
0.730564 0.391020 0.000000
0.695209 0.445870 0.000000
0.650740 0.468062 0.000000
0.603866 0.476882 0.000000
0.559077 0.468213 0.000000
0.514705 0.455151 0.000000
0.468213 0.440923 0.000000
0.417697 0.435419 0.000000
0.363371 0.434494 0.000000
0.301871 0.456462 0.000000
0.259281 0.495254 0.000000
0.220935 0.599029 0.000000
0.193397 0.690389 0.000000
0.224130 0.874243 0.000000
0.378215 0.947243 0.000000
1.000000 0.987134 0.000000
0.000000 0.021933 0.000000
0.466528 0.060089 0.000000
0.698153 0.099024 0.000000
0.713731 0.184933 0.000000
0.735537 0.291861 0.000000
0.713204 0.340733 0.000000
0.688032 0.389009 0.000000
0.652452 0.414229 0.000000
0.606934 0.426240 0.000000
0.564581 0.417697 0.000000
0.522050 0.406531 0.000000
0.476882 0.396134 0.000000
0.426240 0.393066 0.000000
0.366038 0.395252 0.000000
0.302047 0.416757 0.000000
0.250577 0.450156 0.000000
0.212726 0.567521 0.000000
0.176277 0.685903 0.000000
0.209978 0.877846 0.000000
0.348324 0.951430 0.000000
1.000000 0.988314 0.000000
0.000000 0.026560 0.000000
0.393009 0.060419 0.000000
0.633332 0.091672 0.000000
0.676088 0.150008 0.000000
0.701488 0.236101 0.000000
0.689084 0.284727 0.000000
0.666807 0.329063 0.000000
0.637662 0.352428 0.000000
0.604748 0.366038 0.000000
0.565506 0.363371 0.000000
0.520313 0.356811 0.000000
0.468062 0.349260 0.000000
0.414229 0.347548 0.000000
0.352428 0.362338 0.000000
0.284948 0.380496 0.000000
0.232369 0.425959 0.000000
0.202936 0.544033 0.000000
0.160426 0.681083 0.000000
0.195154 0.877617 0.000000
0.321285 0.955869 0.000000
1.000000 0.989025 0.000000
0.000000 0.032635 0.000000
0.317074 0.060907 0.000000
0.548652 0.090580 0.000000
0.621889 0.127258 0.000000
0.645966 0.170723 0.000000
0.651894 0.208866 0.000000
0.647816 0.258019 0.000000
0.619504 0.284948 0.000000
0.583243 0.302047 0.000000
0.543538 0.301871 0.000000
0.499789 0.306885 0.000000
0.445870 0.304791 0.000000
0.389009 0.311968 0.000000
0.329063 0.333193 0.000000
0.258019 0.352184 0.000000
0.210355 0.413456 0.000000
0.189973 0.528350 0.000000
0.146486 0.680438 0.000000
0.180265 0.876935 0.000000
0.301257 0.960682 0.000000
1.000000 0.989500 0.000000
0.000000 0.039066 0.000000
0.259272 0.065947 0.000000
0.436028 0.085322 0.000000
0.540173 0.117661 0.000000
0.556138 0.148411 0.000000
0.575720 0.179792 0.000000
0.586544 0.210355 0.000000
0.574041 0.232369 0.000000
0.549844 0.250577 0.000000
0.504746 0.259281 0.000000
0.450810 0.266448 0.000000
0.391020 0.269436 0.000000
0.340733 0.286796 0.000000
0.284727 0.310916 0.000000
0.208866 0.348106 0.000000
0.179792 0.424280 0.000000
0.172730 0.518029 0.000000
0.134181 0.683696 0.000000
0.164413 0.876813 0.000000
0.284963 0.965574 0.000000
1.000000 0.989941 0.000000
0.000000 0.047165 0.000000
0.198161 0.074018 0.000000
0.295335 0.087156 0.000000
0.433567 0.107355 0.000000
0.478847 0.147054 0.000000
0.481971 0.172730 0.000000
0.471650 0.189973 0.000000
0.455967 0.202936 0.000000
0.432479 0.212726 0.000000
0.400971 0.220935 0.000000
0.367680 0.224878 0.000000
0.334555 0.240334 0.000000
0.291861 0.264463 0.000000
0.236101 0.298512 0.000000
0.170723 0.354034 0.000000
0.148411 0.443862 0.000000
0.147054 0.521153 0.000000
0.124082 0.690343 0.000000
0.145625 0.879283 0.000000
0.280831 0.971249 0.000000
1.000000 0.990558 0.000000
0.000000 0.055734 0.000000
0.160491 0.089689 0.000000
0.227301 0.119569 0.000000
0.285321 0.119454 0.000000
0.309657 0.124082 0.000000
0.316304 0.134181 0.000000
0.319562 0.146486 0.000000
0.318917 0.160426 0.000000
0.314097 0.176277 0.000000
[...]
POINT_DATA 2205 
VECTORS pos float 
0.000000 0.000000 0.000000
0.527121 0.000000 0.000000
0.906014 0.000000 0.000000
0.944266 0.000000 0.000000
0.952835 0.000000 0.000000
0.960934 0.000000 0.000000
0.967365 0.000000 0.000000
0.973440 0.000000 0.000000
0.978067 0.000000 0.000000
0.981791 0.000000 0.000000
0.984993 0.000000 0.000000
0.987134 0.000000 0.000000
0.988314 0.000000 0.000000
0.989025 0.000000 0.000000
0.989500 0.000000 0.000000
0.989941 0.000000 0.000000
0.990558 0.000000 0.000000
0.991552 0.000000 0.000000
0.993640 0.000000 0.000000
0.997691 0.000000 0.000000
1.000000 0.000000 0.000000
0.000000 0.002309 0.000000
0.584362 0.004973 0.000000
0.917839 0.044116 0.000000
0.910311 0.160491 0.000000
0.925982 0.198161 0.000000
0.934053 0.259272 0.000000
0.939093 0.317074 0.000000
0.939581 0.393009 0.000000
0.939911 0.466528 0.000000
0.941761 0.522263 0.000000
0.944148 0.575763 0.000000
0.947243 0.621785 0.000000
0.951430 0.651676 0.000000
0.955869 0.678715 0.000000
0.960682 0.698743 0.000000
0.965574 0.715037 0.000000
0.971249 0.719169 0.000000
0.978679 0.699936 0.000000
0.987116 0.659281 0.000000
0.995027 0.584362 0.000000
1.000000 0.527121 0.000000
0.000000 0.006360 0.000000
0.659281 0.012884 0.000000
0.908553 0.086778 0.000000
0.880431 0.227301 0.000000
0.912844 0.295335 0.000000
0.914678 0.436028 0.000000
0.909420 0.548652 0.000000
0.908328 0.633332 0.000000
0.900976 0.698153 0.000000
0.896718 0.736303 0.000000
0.884420 0.762582 0.000000
0.874243 0.775870 0.000000
0.877846 0.790022 0.000000
0.877617 0.804846 0.000000
0.876935 0.819735 0.000000
0.876813 0.835587 0.000000
0.879283 0.854375 0.000000
0.890897 0.880781 0.000000
0.913222 0.908553 0.000000
0.955884 0.917839 0.000000
1.000000 0.906014 0.000000
0.000000 0.008448 0.000000
0.699936 0.021321 0.000000
0.880781 0.109103 0.000000
0.880546 0.285321 0.000000
0.892645 0.433567 0.000000
0.882339 0.540173 0.000000
0.872742 0.621889 0.000000
0.849992 0.676088 0.000000
0.815067 0.713731 0.000000
0.782421 0.743857 0.000000
0.732390 0.775720 0.000000
0.690389 0.806603 0.000000
0.685903 0.823723 0.000000
0.681083 0.839574 0.000000
0.680438 0.853514 0.000000
0.683696 0.865819 0.000000
0.690343 0.875918 0.000000
0.714679 0.880546 0.000000
0.772699 0.880431 0.000000
0.839509 0.910311 0.000000
1.000000 0.944266 0.000000
0.000000 0.009442 0.000000
0.719169 0.028751 0.000000
0.854375 0.120717 0.000000
0.875918 0.309657 0.000000
0.852946 0.478847 0.000000
0.851589 0.556138 0.000000
0.829277 0.645966 0.000000
0.763899 0.701488 0.000000
0.708139 0.735537 0.000000
0.665445 0.759666 0.000000
0.632320 0.775122 0.000000
0.599029 0.779065 0.000000
0.567521 0.787274 0.000000
0.544033 0.797064 0.000000
0.528350 0.810027 0.000000
0.518029 0.827270 0.000000
0.521153 0.852946 0.000000
0.566433 0.892645 0.000000
0.704665 0.912844 0.000000
0.801839 0.925982 0.000000
1.000000 0.952835 0.000000
0.000000 0.010059 0.000000
0.715037 0.034426 0.000000
0.835587 0.123187 0.000000
0.865819 0.316304 0.000000
0.827270 0.481971 0.000000
0.820208 0.575720 0.000000
0.791134 0.651894 0.000000
0.715273 0.689084 0.000000
0.659267 0.713204 0.000000
0.608980 0.730564 0.000000
0.549190 0.733552 0.000000
0.495254 0.740719 0.000000
0.450156 0.749423 0.000000
0.425959 0.767631 0.000000
0.413456 0.789645 0.000000
0.424280 0.820208 0.000000
0.443862 0.851589 0.000000
0.459827 0.882339 0.000000
0.563972 0.914678 0.000000
0.740728 0.934053 0.000000
1.000000 0.960934 0.000000
0.000000 0.010500 0.000000
0.698743 0.039318 0.000000
0.819735 0.123065 0.000000
0.853514 0.319562 0.000000
0.810027 0.471650 0.000000
0.789645 0.586544 0.000000
0.741981 0.647816 0.000000
0.670937 0.666807 0.000000
0.610991 0.688032 0.000000
0.554130 0.695209 0.000000
0.500211 0.693115 0.000000
0.456462 0.698129 0.000000
0.416757 0.697953 0.000000
0.380496 0.715052 0.000000
0.352184 0.741981 0.000000
0.348106 0.791134 0.000000
0.354034 0.829277 0.000000
0.378111 0.872742 0.000000
0.451348 0.909420 0.000000
0.682926 0.939093 0.000000
1.000000 0.967365 0.000000
0.000000 0.010975 0.000000
0.678715 0.044131 0.000000
0.804846 0.122383 0.000000
0.839574 0.318917 0.000000
0.797064 0.455967 0.000000
0.767631 0.574041 0.000000
0.715052 0.619504 0.000000
0.647572 0.637662 0.000000
0.585771 0.652452 0.000000
0.531938 0.650740 0.000000
0.479687 0.643189 0.000000
0.434494 0.636629 0.000000
0.395252 0.633962 0.000000
0.362338 0.647572 0.000000
0.333193 0.670937 0.000000
0.310916 0.715273 0.000000
0.298512 0.763899 0.000000
0.323912 0.849992 0.000000
0.366668 0.908328 0.000000
0.606991 0.939581 0.000000
1.000000 0.973440 0.000000
0.000000 0.011686 0.000000
0.651676 0.048570 0.000000
0.790022 0.122154 0.000000
0.823723 0.314097 0.000000
0.787274 0.432479 0.000000
0.749423 0.549844 0.000000
0.697953 0.583243 0.000000
0.633962 0.604748 0.000000
0.573760 0.606934 0.000000
0.523118 0.603866 0.000000
0.477950 0.593469 0.000000
0.435419 0.582303 0.000000
0.393066 0.573760 0.000000
0.347548 0.585771 0.000000
0.311968 0.610991 0.000000
0.286796 0.659267 0.000000
0.264463 0.708139 0.000000
0.286269 0.815067 0.000000
0.301847 0.900976 0.000000
0.533472 0.939911 0.000000
1.000000 0.978067 0.000000
0.000000 0.012866 0.000000
0.621785 0.052757 0.000000
0.775870 0.125757 0.000000
0.806603 0.309611 0.000000
0.779065 0.400971 0.000000
0.740719 0.504746 0.000000
0.698129 0.543538 0.000000
0.636629 0.565506 0.000000
0.582303 0.564581 0.000000
0.531787 0.559077 0.000000
0.485295 0.544849 0.000000
0.440923 0.531787 0.000000
0.396134 0.523118 0.000000
0.349260 0.531938 0.000000
0.304791 0.554130 0.000000
0.269436 0.608980 0.000000
0.240334 0.665445 0.000000
0.256143 0.782421 0.000000
0.263697 0.896718 0.000000
0.477737 0.941761 0.000000
1.000000 0.981791 0.000000
0.000000 0.015007 0.000000
0.575763 0.055852 0.000000
0.762582 0.115580 0.000000
0.775720 0.267610 0.000000
0.775122 0.367680 0.000000
0.733552 0.450810 0.000000
0.693115 0.499789 0.000000
0.643189 0.520313 0.000000
0.593469 0.522050 0.000000
0.544849 0.514705 0.000000
0.500000 0.500000 0.000000
0.455151 0.485295 0.000000
0.406531 0.477950 0.000000
0.356811 0.479687 0.000000
0.306885 0.500211 0.000000
0.266448 0.549190 0.000000
0.224878 0.632320 0.000000
0.224280 0.732390 0.000000
0.237418 0.884420 0.000000
0.424237 0.944148 0.000000
1.000000 0.984993 0.000000
0.000000 0.018209 0.000000
0.522263 0.058239 0.000000
0.736303 0.103282 0.000000
0.743857 0.217579 0.000000
0.759666 0.334555 0.000000
0.730564 0.391020 0.000000
0.695209 0.445870 0.000000
0.650740 0.468062 0.000000
0.603866 0.476882 0.000000
0.559077 0.468213 0.000000
0.514705 0.455151 0.000000
0.468213 0.440923 0.000000
0.417697 0.435419 0.000000
0.363371 0.434494 0.000000
0.301871 0.456462 0.000000
0.259281 0.495254 0.000000
0.220935 0.599029 0.000000
0.193397 0.690389 0.000000
0.224130 0.874243 0.000000
0.378215 0.947243 0.000000
1.000000 0.987134 0.000000
0.000000 0.021933 0.000000
0.466528 0.060089 0.000000
0.698153 0.099024 0.000000
0.713731 0.184933 0.000000
0.735537 0.291861 0.000000
0.713204 0.340733 0.000000
0.688032 0.389009 0.000000
0.652452 0.414229 0.000000
0.606934 0.426240 0.000000
0.564581 0.417697 0.000000
0.522050 0.406531 0.000000
0.476882 0.396134 0.000000
0.426240 0.393066 0.000000
0.366038 0.395252 0.000000
0.302047 0.416757 0.000000
0.250577 0.450156 0.000000
0.212726 0.567521 0.000000
0.176277 0.685903 0.000000
0.209978 0.877846 0.000000
0.348324 0.951430 0.000000
1.000000 0.988314 0.000000
0.000000 0.026560 0.000000
0.393009 0.060419 0.000000
0.633332 0.091672 0.000000
0.676088 0.150008 0.000000
0.701488 0.236101 0.000000
0.689084 0.284727 0.000000
0.666807 0.329063 0.000000
0.637662 0.352428 0.000000
0.604748 0.366038 0.000000
0.565506 0.363371 0.000000
0.520313 0.356811 0.000000
0.468062 0.349260 0.000000
0.414229 0.347548 0.000000
0.352428 0.362338 0.000000
0.284948 0.380496 0.000000
0.232369 0.425959 0.000000
0.202936 0.544033 0.000000
0.160426 0.681083 0.000000
0.195154 0.877617 0.000000
0.321285 0.955869 0.000000
1.000000 0.989025 0.000000
0.000000 0.032635 0.000000
0.317074 0.060907 0.000000
0.548652 0.090580 0.000000
0.621889 0.127258 0.000000
0.645966 0.170723 0.000000
0.651894 0.208866 0.000000
0.647816 0.258019 0.000000
0.619504 0.284948 0.000000
0.583243 0.302047 0.000000
0.543538 0.301871 0.000000
0.499789 0.306885 0.000000
0.445870 0.304791 0.000000
0.389009 0.311968 0.000000
0.329063 0.333193 0.000000
0.258019 0.352184 0.000000
0.210355 0.413456 0.000000
0.189973 0.528350 0.000000
0.146486 0.680438 0.000000
0.180265 0.876935 0.000000
0.301257 0.960682 0.000000
1.000000 0.989500 0.000000
0.000000 0.039066 0.000000
0.259272 0.065947 0.000000
0.436028 0.085322 0.000000
0.540173 0.117661 0.000000
0.556138 0.148411 0.000000
0.575720 0.179792 0.000000
0.586544 0.210355 0.000000
0.574041 0.232369 0.000000
0.549844 0.250577 0.000000
0.504746 0.259281 0.000000
0.450810 0.266448 0.000000
0.391020 0.269436 0.000000
0.340733 0.286796 0.000000
0.284727 0.310916 0.000000
0.208866 0.348106 0.000000
0.179792 0.424280 0.000000
0.172730 0.518029 0.000000
0.134181 0.683696 0.000000
0.164413 0.876813 0.000000
0.284963 0.965574 0.000000
1.000000 0.989941 0.000000
0.000000 0.047165 0.000000
0.198161 0.074018 0.000000
0.295335 0.087156 0.000000
0.433567 0.107355 0.000000
0.478847 0.147054 0.000000
0.481971 0.172730 0.000000
0.471650 0.189973 0.000000
0.455967 0.202936 0.000000
0.432479 0.212726 0.000000
0.400971 0.220935 0.000000
0.367680 0.224878 0.000000
0.334555 0.240334 0.000000
0.291861 0.264463 0.000000
0.236101 0.298512 0.000000
0.170723 0.354034 0.000000
0.148411 0.443862 0.000000
0.147054 0.521153 0.000000
0.124082 0.690343 0.000000
0.145625 0.879283 0.000000
0.280831 0.971249 0.000000
1.000000 0.990558 0.000000
0.000000 0.055734 0.000000
0.160491 0.089689 0.000000
0.227301 0.119569 0.000000
0.285321 0.119454 0.000000
0.309657 0.124082 0.000000
0.316304 0.134181 0.000000
0.319562 0.146486 0.000000
0.318917 0.160426 0.000000
0.314097 0.176277 0.000000
0.309611 0.193397 0.000000
0.267610 0.224280 0.000000
0.217579 0.256143 0.000000
0.184933 0.286269 0.000000
0.150008 0.323912 0.000000
0.127258 0.378111 0.000000
0.117661 0.459827 0.000000
0.107355 0.566433 0.000000
0.119454 0.714679 0.000000
0.119219 0.890897 0.000000
0.300064 0.978679 0.000000
1.000000 0.991552 0.000000
0.000000 0.093986 0.000000
0.044116 0.082161 0.000000
0.086778 0.091447 0.000000
0.109103 0.119219 0.000000
0.120717 0.145625 0.000000
0.123187 0.164413 0.000000
0.123065 0.180265 0.000000
0.122383 0.195154 0.000000
0.122154 0.209978 0.000000
0.125757 0.224130 0.000000
0.115580 0.237418 0.000000
0.103282 0.263697 0.000000
0.099024 0.301847 0.000000
0.091672 0.366668 0.000000
0.090580 0.451348 0.000000
0.085322 0.563972 0.000000
0.087156 0.704665 0.000000
0.119569 0.772699 0.000000
0.091447 0.913222 0.000000
0.340719 0.987116 0.000000
1.000000 0.993640 0.000000
0.000000 0.472879 0.000000
0.004973 0.415638 0.000000
0.012884 0.340719 0.000000
0.021321 0.300064 0.000000
0.028751 0.280831 0.000000
0.034426 0.284963 0.000000
0.039318 0.301257 0.000000
0.044131 0.321285 0.000000
0.048570 0.348324 0.000000
0.052757 0.378215 0.000000
0.055852 0.424237 0.000000
0.058239 0.477737 0.000000
0.060089 0.533472 0.000000
0.060419 0.606991 0.000000
0.060907 0.682926 0.000000
0.065947 0.740728 0.000000
0.074018 0.801839 0.000000
0.089689 0.839509 0.000000
0.082161 0.955884 0.000000
0.415638 0.995027 0.000000
1.000000 0.997691 0.000000
0.000000 1.000000 0.000000
0.002309 1.000000 0.000000
0.006360 1.000000 0.000000
0.008448 1.000000 0.000000
0.009442 1.000000 0.000000
0.010059 1.000000 0.000000
0.010500 1.000000 0.000000
0.010975 1.000000 0.000000
0.011686 1.000000 0.000000
0.012866 1.000000 0.000000
0.015007 1.000000 0.000000
0.018209 1.000000 0.000000
0.021933 1.000000 0.000000
0.026560 1.000000 0.000000
0.032635 1.000000 0.000000
0.039066 1.000000 0.000000
0.047165 1.000000 0.000000
0.055734 1.000000 0.000000
0.093986 1.000000 0.000000
0.472879 1.000000 0.000000
1.000000 1.000000 0.000000
0.000000 0.000000 0.082500
0.527121 0.000000 0.082500
0.906014 0.000000 0.082500
0.944266 0.000000 0.082500
0.952835 0.000000 0.082500
0.960934 0.000000 0.082500
0.967365 0.000000 0.082500
0.973440 0.000000 0.082500
0.978067 0.000000 0.082500
0.981791 0.000000 0.082500
0.984993 0.000000 0.082500
0.987134 0.000000 0.082500
0.988314 0.000000 0.082500
0.989025 0.000000 0.082500
0.989500 0.000000 0.082500
0.989941 0.000000 0.082500
0.990558 0.000000 0.082500
0.991552 0.000000 0.082500
0.993640 0.000000 0.082500
0.997691 0.000000 0.082500
1.000000 0.000000 0.082500
0.000000 0.002309 0.082500
0.584362 0.004973 0.082500
0.917839 0.044116 0.082500
0.910311 0.160491 0.082500
0.925982 0.198161 0.082500
0.934053 0.259272 0.082500
0.939093 0.317074 0.082500
0.939581 0.393009 0.082500
0.939911 0.466528 0.082500
0.941761 0.522263 0.082500
0.944148 0.575763 0.082500
0.947243 0.621785 0.082500
0.951430 0.651676 0.082500
0.955869 0.678715 0.082500
0.960682 0.698743 0.082500
0.965574 0.715037 0.082500
0.971249 0.719169 0.082500
0.978679 0.699936 0.082500
0.987116 0.659281 0.082500
0.995027 0.584362 0.082500
1.000000 0.527121 0.082500
0.000000 0.006360 0.082500
0.659281 0.012884 0.082500
0.908553 0.086778 0.082500
0.880431 0.227301 0.082500
0.912844 0.295335 0.082500
0.914678 0.436028 0.082500
0.909420 0.548652 0.082500
0.908328 0.633332 0.082500
0.900976 0.698153 0.082500
0.896718 0.736303 0.082500
0.884420 0.762582 0.082500
0.874243 0.775870 0.082500
0.877846 0.790022 0.082500
0.877617 0.804846 0.082500
0.876935 0.819735 0.082500
0.876813 0.835587 0.082500
0.879283 0.854375 0.082500
0.890897 0.880781 0.082500
0.913222 0.908553 0.082500
0.955884 0.917839 0.082500
1.000000 0.906014 0.082500
0.000000 0.008448 0.082500
0.699936 0.021321 0.082500
0.880781 0.109103 0.082500
0.880546 0.285321 0.082500
0.892645 0.433567 0.082500
0.882339 0.540173 0.082500
0.872742 0.621889 0.082500
0.849992 0.676088 0.082500
0.815067 0.713731 0.082500
0.782421 0.743857 0.082500
0.732390 0.775720 0.082500
0.690389 0.806603 0.082500
0.685903 0.823723 0.082500
0.681083 0.839574 0.082500
0.680438 0.853514 0.082500
0.683696 0.865819 0.082500
0.690343 0.875918 0.082500
0.714679 0.880546 0.082500
0.772699 0.880431 0.082500
0.839509 0.910311 0.082500
1.000000 0.944266 0.082500
0.000000 0.009442 0.082500
0.719169 0.028751 0.082500
0.854375 0.120717 0.082500
0.875918 0.309657 0.082500
0.852946 0.478847 0.082500
0.851589 0.556138 0.082500
0.829277 0.645966 0.082500
0.763899 0.701488 0.082500
0.708139 0.735537 0.082500
0.665445 0.759666 0.082500
0.632320 0.775122 0.082500
0.599029 0.779065 0.082500
0.567521 0.787274 0.082500
0.544033 0.797064 0.082500
0.528350 0.810027 0.082500
0.518029 0.827270 0.082500
0.521153 0.852946 0.082500
0.566433 0.892645 0.082500
0.704665 0.912844 0.082500
0.801839 0.925982 0.082500
1.000000 0.952835 0.082500
0.000000 0.010059 0.082500
0.715037 0.034426 0.082500
0.835587 0.123187 0.082500
0.865819 0.316304 0.082500
0.827270 0.481971 0.082500
0.820208 0.575720 0.082500
0.791134 0.651894 0.082500
0.715273 0.689084 0.082500
0.659267 0.713204 0.082500
0.608980 0.730564 0.082500
0.549190 0.733552 0.082500
0.495254 0.740719 0.082500
0.450156 0.749423 0.082500
0.425959 0.767631 0.082500
0.413456 0.789645 0.082500
0.424280 0.820208 0.082500
0.443862 0.851589 0.082500
0.459827 0.882339 0.082500
0.563972 0.914678 0.082500
0.740728 0.934053 0.082500
1.000000 0.960934 0.082500
0.000000 0.010500 0.082500
0.698743 0.039318 0.082500
0.819735 0.123065 0.082500
0.853514 0.319562 0.082500
0.810027 0.471650 0.082500
0.789645 0.586544 0.082500
0.741981 0.647816 0.082500
0.670937 0.666807 0.082500
0.610991 0.688032 0.082500
0.554130 0.695209 0.082500
0.500211 0.693115 0.082500
0.456462 0.698129 0.082500
0.416757 0.697953 0.082500
0.380496 0.715052 0.082500
0.352184 0.741981 0.082500
0.348106 0.791134 0.082500
0.354034 0.829277 0.082500
0.378111 0.872742 0.082500
0.451348 0.909420 0.082500
0.682926 0.939093 0.082500
1.000000 0.967365 0.082500
0.000000 0.010975 0.082500
0.678715 0.044131 0.082500
0.804846 0.122383 0.082500
0.839574 0.318917 0.082500
0.797064 0.455967 0.082500
0.767631 0.574041 0.082500
0.715052 0.619504 0.082500
0.647572 0.637662 0.082500
0.585771 0.652452 0.082500
0.531938 0.650740 0.082500
0.479687 0.643189 0.082500
0.434494 0.636629 0.082500
0.395252 0.633962 0.082500
0.362338 0.647572 0.082500
0.333193 0.670937 0.082500
0.310916 0.715273 0.082500
0.298512 0.763899 0.082500
0.323912 0.849992 0.082500
0.366668 0.908328 0.082500
0.606991 0.939581 0.082500
1.000000 0.973440 0.082500
0.000000 0.011686 0.082500
0.651676 0.048570 0.082500
0.790022 0.122154 0.082500
0.823723 0.314097 0.082500
0.787274 0.432479 0.082500
0.749423 0.549844 0.082500
0.697953 0.583243 0.082500
0.633962 0.604748 0.082500
0.573760 0.606934 0.082500
0.523118 0.603866 0.082500
0.477950 0.593469 0.082500
0.435419 0.582303 0.082500
0.393066 0.573760 0.082500
0.347548 0.585771 0.082500
0.311968 0.610991 0.082500
0.286796 0.659267 0.082500
0.264463 0.708139 0.082500
0.286269 0.815067 0.082500
0.301847 0.900976 0.082500
0.533472 0.939911 0.082500
1.000000 0.978067 0.082500
0.000000 0.012866 0.082500
0.621785 0.052757 0.082500
0.775870 0.125757 0.082500
0.806603 0.309611 0.082500
0.779065 0.400971 0.082500
0.740719 0.504746 0.082500
0.698129 0.543538 0.082500
0.636629 0.565506 0.082500
0.582303 0.564581 0.082500
0.531787 0.559077 0.082500
0.485295 0.544849 0.082500
0.440923 0.531787 0.082500
0.396134 0.523118 0.082500
0.349260 0.531938 0.082500
0.304791 0.554130 0.082500
0.269436 0.608980 0.082500
0.240334 0.665445 0.082500
0.256143 0.782421 0.082500
0.263697 0.896718 0.082500
0.477737 0.941761 0.082500
1.000000 0.981791 0.082500
0.000000 0.015007 0.082500
0.575763 0.055852 0.082500
0.762582 0.115580 0.082500
0.775720 0.267610 0.082500
0.775122 0.367680 0.082500
0.733552 0.450810 0.082500
0.693115 0.499789 0.082500
0.643189 0.520313 0.082500
0.593469 0.522050 0.082500
0.544849 0.514705 0.082500
0.500000 0.500000 0.082500
0.455151 0.485295 0.082500
0.406531 0.477950 0.082500
0.356811 0.479687 0.082500
0.306885 0.500211 0.082500
0.266448 0.549190 0.082500
0.224878 0.632320 0.082500
0.224280 0.732390 0.082500
0.237418 0.884420 0.082500
0.424237 0.944148 0.082500
1.000000 0.984993 0.082500
0.000000 0.018209 0.082500
0.522263 0.058239 0.082500
0.736303 0.103282 0.082500
0.743857 0.217579 0.082500
0.759666 0.334555 0.082500
0.730564 0.391020 0.082500
0.695209 0.445870 0.082500
0.650740 0.468062 0.082500
0.603866 0.476882 0.082500
0.559077 0.468213 0.082500
0.514705 0.455151 0.082500
0.468213 0.440923 0.082500
0.417697 0.435419 0.082500
0.363371 0.434494 0.082500
0.301871 0.456462 0.082500
0.259281 0.495254 0.082500
0.220935 0.599029 0.082500
0.193397 0.690389 0.082500
0.224130 0.874243 0.082500
0.378215 0.947243 0.082500
1.000000 0.987134 0.082500
0.000000 0.021933 0.082500
0.466528 0.060089 0.082500
0.698153 0.099024 0.082500
0.713731 0.184933 0.082500
0.735537 0.291861 0.082500
0.713204 0.340733 0.082500
0.688032 0.389009 0.082500
0.652452 0.414229 0.082500
0.606934 0.426240 0.082500
0.564581 0.417697 0.082500
0.522050 0.406531 0.082500
0.476882 0.396134 0.082500
0.426240 0.393066 0.082500
0.366038 0.395252 0.082500
0.302047 0.416757 0.082500
0.250577 0.450156 0.082500
0.212726 0.567521 0.082500
0.176277 0.685903 0.082500
0.209978 0.877846 0.082500
0.348324 0.951430 0.082500
1.000000 0.988314 0.082500
0.000000 0.026560 0.082500
0.393009 0.060419 0.082500
0.633332 0.091672 0.082500
0.676088 0.150008 0.082500
0.701488 0.236101 0.082500
0.689084 0.284727 0.082500
0.666807 0.329063 0.082500
0.637662 0.352428 0.082500
0.604748 0.366038 0.082500
0.565506 0.363371 0.082500
0.520313 0.356811 0.082500
0.468062 0.349260 0.082500
0.414229 0.347548 0.082500
0.352428 0.362338 0.082500
0.284948 0.380496 0.082500
0.232369 0.425959 0.082500
0.202936 0.544033 0.082500
0.160426 0.681083 0.082500
0.195154 0.877617 0.082500
0.321285 0.955869 0.082500
1.000000 0.989025 0.082500
0.000000 0.032635 0.082500
0.317074 0.060907 0.082500
0.548652 0.090580 0.082500
0.621889 0.127258 0.082500