# vtk DataFile Version 2.0
Mesh for Fierro
ASCII 
DATASET UNSTRUCTURED_GRID

POINTS 2205 float
0.000000 0.000000 0.000000
0.138462 0.000000 0.000000
0.266017 0.000000 0.000000
0.378146 0.000000 0.000000
0.471365 0.000000 0.000000
0.547627 0.000000 0.000000
0.611759 0.000000 0.000000
0.663771 0.000000 0.000000
0.708662 0.000000 0.000000
0.747337 0.000000 0.000000
0.782145 0.000000 0.000000
0.812391 0.000000 0.000000
0.838972 0.000000 0.000000
0.863754 0.000000 0.000000
0.886369 0.000000 0.000000
0.907377 0.000000 0.000000
0.927400 0.000000 0.000000
0.946353 0.000000 0.000000
0.964254 0.000000 0.000000
0.982465 0.000000 0.000000
1.000000 0.000000 0.000000
0.000000 0.017535 0.000000
0.137461 0.018514 0.000000
0.264128 0.020590 0.000000
0.376103 0.024840 0.000000
0.469449 0.029519 0.000000
0.545159 0.036159 0.000000
0.608856 0.043498 0.000000
0.660578 0.051157 0.000000
0.705260 0.059712 0.000000
0.743671 0.068451 0.000000
0.778087 0.077523 0.000000
0.808133 0.086722 0.000000
0.834548 0.096277 0.000000
0.859388 0.105186 0.000000
0.881721 0.113053 0.000000
0.903618 0.120243 0.000000
0.923744 0.126057 0.000000
0.943703 0.131019 0.000000
0.962751 0.134867 0.000000
0.981486 0.137461 0.000000
1.000000 0.138462 0.000000
0.000000 0.035746 0.000000
0.134867 0.037249 0.000000
0.259382 0.041403 0.000000
0.370162 0.049623 0.000000
0.462871 0.058704 0.000000
0.537408 0.071627 0.000000
0.600150 0.085890 0.000000
0.651086 0.100760 0.000000
0.694845 0.117158 0.000000
0.732909 0.133960 0.000000
0.766670 0.151293 0.000000
0.797026 0.168887 0.000000
0.823436 0.187045 0.000000
0.848394 0.203907 0.000000
0.871894 0.218844 0.000000
0.894609 0.232308 0.000000
0.916355 0.243296 0.000000
0.937739 0.252631 0.000000
0.958597 0.259382 0.000000
0.979410 0.264128 0.000000
1.000000 0.266017 0.000000
0.000000 0.053647 0.000000
0.131019 0.056297 0.000000
0.252631 0.062261 0.000000
0.361013 0.073887 0.000000
0.452603 0.087084 0.000000
0.525006 0.105686 0.000000
0.585945 0.126245 0.000000
0.635671 0.147940 0.000000
0.678093 0.171631 0.000000
0.715453 0.195568 0.000000
0.747920 0.220495 0.000000
0.777428 0.245171 0.000000
0.804011 0.270218 0.000000
0.829104 0.293504 0.000000
0.853340 0.314323 0.000000
0.877769 0.332710 0.000000
0.901911 0.348213 0.000000
0.926113 0.361013 0.000000
0.950377 0.370162 0.000000
0.975160 0.376103 0.000000
1.000000 0.378146 0.000000
0.000000 0.072600 0.000000
0.126057 0.076256 0.000000
0.243296 0.083645 0.000000
0.348213 0.098089 0.000000
0.437865 0.114872 0.000000
0.507417 0.138281 0.000000
0.566262 0.164208 0.000000
0.614662 0.191771 0.000000
0.655936 0.221765 0.000000
0.692405 0.251870 0.000000
0.724129 0.283319 0.000000
0.752971 0.314003 0.000000
0.779573 0.344822 0.000000
0.806008 0.372501 0.000000
0.831709 0.397576 0.000000
0.858370 0.419444 0.000000
0.885128 0.437865 0.000000
0.912916 0.452603 0.000000
0.941296 0.462871 0.000000
0.970481 0.469449 0.000000
1.000000 0.471365 0.000000
0.000000 0.092623 0.000000
0.120243 0.096382 0.000000
0.232308 0.105391 0.000000
0.332710 0.122231 0.000000
0.419444 0.141630 0.000000
0.485867 0.168237 0.000000
0.542291 0.197930 0.000000
0.589219 0.229624 0.000000
0.629429 0.263481 0.000000
0.664316 0.297333 0.000000
0.694708 0.332411 0.000000
0.722728 0.366639 0.000000
0.748545 0.400806 0.000000
0.775514 0.432229 0.000000
0.802818 0.460639 0.000000
0.831763 0.485867 0.000000
0.861719 0.507417 0.000000
0.894314 0.525006 0.000000
0.928373 0.537408 0.000000
0.963841 0.545159 0.000000
1.000000 0.547627 0.000000
0.000000 0.113631 0.000000
0.113053 0.118279 0.000000
0.218844 0.128106 0.000000
0.314323 0.146660 0.000000
0.397576 0.168291 0.000000
0.460639 0.197182 0.000000
0.514444 0.229463 0.000000
0.559666 0.264081 0.000000
0.598632 0.300852 0.000000
0.631914 0.337634 0.000000
0.660985 0.375550 0.000000
0.688312 0.412576 0.000000
0.713827 0.449249 0.000000
0.741529 0.483355 0.000000
0.770537 0.514444 0.000000
0.802070 0.542291 0.000000
0.835792 0.566262 0.000000
0.873755 0.585945 0.000000
0.914110 0.600150 0.000000
0.956502 0.608856 0.000000
1.000000 0.611759 0.000000
0.000000 0.136246 0.000000
0.105186 0.140612 0.000000
0.203907 0.151606 0.000000
0.293504 0.170896 0.000000
0.372501 0.193992 0.000000
0.432229 0.224486 0.000000
0.483355 0.258471 0.000000
0.526561 0.295166 0.000000
0.563990 0.334019 0.000000
0.595680 0.373088 0.000000
0.623397 0.413087 0.000000
0.650086 0.452116 0.000000
0.675785 0.490471 0.000000
0.704834 0.526561 0.000000
0.735919 0.559666 0.000000
0.770376 0.589219 0.000000
0.808229 0.614662 0.000000
0.852060 0.635671 0.000000
0.899240 0.651086 0.000000
0.948843 0.660578 0.000000
1.000000 0.663771 0.000000
0.000000 0.161028 0.000000
0.096277 0.165452 0.000000
0.187045 0.176564 0.000000
0.270218 0.195989 0.000000
0.344822 0.220427 0.000000
0.400806 0.251455 0.000000
0.449249 0.286173 0.000000
0.490471 0.324215 0.000000
0.526550 0.364801 0.000000
0.556478 0.405351 0.000000
0.583015 0.446711 0.000000
0.609184 0.487129 0.000000
0.635199 0.526550 0.000000
0.665981 0.563990 0.000000
0.699148 0.598632 0.000000
0.736519 0.629429 0.000000
0.778235 0.655936 0.000000
0.828369 0.678093 0.000000
0.882842 0.694845 0.000000
0.940288 0.705260 0.000000
1.000000 0.708662 0.000000
0.000000 0.187609 0.000000
0.086722 0.191867 0.000000
0.168887 0.202974 0.000000
0.245171 0.222572 0.000000
0.314003 0.247029 0.000000
0.366639 0.277272 0.000000
0.412576 0.311688 0.000000
0.452116 0.349914 0.000000
0.487129 0.390816 0.000000
0.515824 0.432062 0.000000
0.541964 0.474165 0.000000
0.567938 0.515824 0.000000
0.594649 0.556478 0.000000
0.626912 0.595680 0.000000
0.662366 0.631914 0.000000
0.702667 0.664316 0.000000
0.748130 0.692405 0.000000
0.804432 0.715453 0.000000
0.866040 0.732909 0.000000
0.931549 0.743671 0.000000
1.000000 0.747337 0.000000
0.000000 0.217855 0.000000
0.077523 0.221913 0.000000
0.151293 0.233330 0.000000
0.220495 0.252080 0.000000
0.283319 0.275871 0.000000
0.332411 0.305292 0.000000
0.375550 0.339015 0.000000
0.413087 0.376603 0.000000
0.446711 0.416985 0.000000
0.474165 0.458036 0.000000
0.500000 0.500000 0.000000
0.525835 0.541964 0.000000
0.553289 0.583015 0.000000
0.586913 0.623397 0.000000
0.624450 0.660985 0.000000
0.667589 0.694708 0.000000
0.716681 0.724129 0.000000
0.779505 0.747920 0.000000
0.848707 0.766670 0.000000
0.922477 0.778087 0.000000
1.000000 0.782145 0.000000
0.000000 0.252663 0.000000
0.068451 0.256329 0.000000
0.133960 0.267091 0.000000
0.195568 0.284547 0.000000
0.251870 0.307595 0.000000
0.297333 0.335684 0.000000
0.337634 0.368086 0.000000
0.373088 0.404320 0.000000
0.405351 0.443522 0.000000
0.432062 0.484176 0.000000
0.458036 0.525835 0.000000
0.484176 0.567938 0.000000
0.512871 0.609184 0.000000
0.547884 0.650086 0.000000
0.587424 0.688312 0.000000
0.633361 0.722728 0.000000
0.685997 0.752971 0.000000
0.754829 0.777428 0.000000
0.831113 0.797026 0.000000
0.913278 0.808133 0.000000
1.000000 0.812391 0.000000
0.000000 0.291338 0.000000
0.059712 0.294740 0.000000
0.117158 0.305155 0.000000
0.171631 0.321907 0.000000
0.221765 0.344064 0.000000
0.263481 0.370571 0.000000
0.300852 0.401368 0.000000
0.334019 0.436010 0.000000
0.364801 0.473450 0.000000
0.390816 0.512871 0.000000
0.416985 0.553289 0.000000
0.443522 0.594649 0.000000
0.473450 0.635199 0.000000
0.509529 0.675785 0.000000
0.550751 0.713827 0.000000
0.599194 0.748545 0.000000
0.655178 0.779573 0.000000
0.729782 0.804011 0.000000
0.812955 0.823436 0.000000
0.903723 0.834548 0.000000
1.000000 0.838972 0.000000
0.000000 0.336229 0.000000
0.051157 0.339422 0.000000
0.100760 0.348914 0.000000
0.147940 0.364329 0.000000
0.191771 0.385338 0.000000
0.229624 0.410781 0.000000
0.264081 0.440334 0.000000
0.295166 0.473439 0.000000
0.324215 0.509529 0.000000
0.349914 0.547884 0.000000
0.376603 0.586913 0.000000
0.404320 0.626912 0.000000
0.436010 0.665981 0.000000
0.473439 0.704834 0.000000
0.516645 0.741529 0.000000
0.567771 0.775514 0.000000
0.627499 0.806008 0.000000
0.706496 0.829104 0.000000
0.796093 0.848394 0.000000
0.894814 0.859388 0.000000
1.000000 0.863754 0.000000
0.000000 0.388241 0.000000
0.043498 0.391144 0.000000
0.085890 0.399850 0.000000
0.126245 0.414055 0.000000
0.164208 0.433738 0.000000
0.197930 0.457709 0.000000
0.229463 0.485556 0.000000
0.258471 0.516645 0.000000
0.286173 0.550751 0.000000
0.311688 0.587424 0.000000
0.339015 0.624450 0.000000
0.368086 0.662366 0.000000
0.401368 0.699148 0.000000
0.440334 0.735919 0.000000
0.485556 0.770537 0.000000
0.539361 0.802818 0.000000
0.602424 0.831709 0.000000
0.685677 0.853340 0.000000
0.781156 0.871894 0.000000
0.886947 0.881721 0.000000
1.000000 0.886369 0.000000
0.000000 0.452373 0.000000
0.036159 0.454841 0.000000
0.071627 0.462592 0.000000
0.105686 0.474994 0.000000
0.138281 0.492583 0.000000
0.168237 0.514133 0.000000
0.197182 0.539361 0.000000
0.224486 0.567771 0.000000
0.251455 0.599194 0.000000
0.277272 0.633361 0.000000
0.305292 0.667589 0.000000
0.335684 0.702667 0.000000
0.370571 0.736519 0.000000
0.410781 0.770376 0.000000
0.457709 0.802070 0.000000
0.514133 0.831763 0.000000
0.580556 0.858370 0.000000
0.667290 0.877769 0.000000
0.767692 0.894609 0.000000
0.879757 0.903618 0.000000
1.000000 0.907377 0.000000
0.000000 0.528635 0.000000
0.029519 0.530551 0.000000
0.058704 0.537129 0.000000
0.087084 0.547397 0.000000
0.114872 0.562135 0.000000
0.141630 0.580556 0.000000
0.168291 0.602424 0.000000
0.193992 0.627499 0.000000
0.220427 0.655178 0.000000
0.247029 0.685997 0.000000
0.275871 0.716681 0.000000
0.307595 0.748130 0.000000
0.344064 0.778235 0.000000
0.385338 0.808229 0.000000
0.433738 0.835792 0.000000
0.492583 0.861719 0.000000
0.562135 0.885128 0.000000
0.651787 0.901911 0.000000
0.756704 0.916355 0.000000
0.873943 0.923744 0.000000
1.000000 0.927400 0.000000
0.000000 0.621854 0.000000
0.024840 0.623897 0.000000
0.049623 0.629838 0.000000
0.073887 0.638987 0.000000
0.098089 0.651787 0.000000
0.122231 0.667290 0.000000
0.146660 0.685677 0.000000
0.170896 0.706496 0.000000
0.195989 0.729782 0.000000
[...]
POINT_DATA 2205 
VECTORS pos float 
0.000000 0.000000 0.000000
0.138462 0.000000 0.000000
0.266017 0.000000 0.000000
0.378146 0.000000 0.000000
0.471365 0.000000 0.000000
0.547627 0.000000 0.000000
0.611759 0.000000 0.000000
0.663771 0.000000 0.000000
0.708662 0.000000 0.000000
0.747337 0.000000 0.000000
0.782145 0.000000 0.000000
0.812391 0.000000 0.000000
0.838972 0.000000 0.000000
0.863754 0.000000 0.000000
0.886369 0.000000 0.000000
0.907377 0.000000 0.000000
0.927400 0.000000 0.000000
0.946353 0.000000 0.000000
0.964254 0.000000 0.000000
0.982465 0.000000 0.000000
1.000000 0.000000 0.000000
0.000000 0.017535 0.000000
0.137461 0.018514 0.000000
0.264128 0.020590 0.000000
0.376103 0.024840 0.000000
0.469449 0.029519 0.000000
0.545159 0.036159 0.000000
0.608856 0.043498 0.000000
0.660578 0.051157 0.000000
0.705260 0.059712 0.000000
0.743671 0.068451 0.000000
0.778087 0.077523 0.000000
0.808133 0.086722 0.000000
0.834548 0.096277 0.000000
0.859388 0.105186 0.000000
0.881721 0.113053 0.000000
0.903618 0.120243 0.000000
0.923744 0.126057 0.000000
0.943703 0.131019 0.000000
0.962751 0.134867 0.000000
0.981486 0.137461 0.000000
1.000000 0.138462 0.000000
0.000000 0.035746 0.000000
0.134867 0.037249 0.000000
0.259382 0.041403 0.000000
0.370162 0.049623 0.000000
0.462871 0.058704 0.000000
0.537408 0.071627 0.000000
0.600150 0.085890 0.000000
0.651086 0.100760 0.000000
0.694845 0.117158 0.000000
0.732909 0.133960 0.000000
0.766670 0.151293 0.000000
0.797026 0.168887 0.000000
0.823436 0.187045 0.000000
0.848394 0.203907 0.000000
0.871894 0.218844 0.000000
0.894609 0.232308 0.000000
0.916355 0.243296 0.000000
0.937739 0.252631 0.000000
0.958597 0.259382 0.000000
0.979410 0.264128 0.000000
1.000000 0.266017 0.000000
0.000000 0.053647 0.000000
0.131019 0.056297 0.000000
0.252631 0.062261 0.000000
0.361013 0.073887 0.000000
0.452603 0.087084 0.000000
0.525006 0.105686 0.000000
0.585945 0.126245 0.000000
0.635671 0.147940 0.000000
0.678093 0.171631 0.000000
0.715453 0.195568 0.000000
0.747920 0.220495 0.000000
0.777428 0.245171 0.000000
0.804011 0.270218 0.000000
0.829104 0.293504 0.000000
0.853340 0.314323 0.000000
0.877769 0.332710 0.000000
0.901911 0.348213 0.000000
0.926113 0.361013 0.000000
0.950377 0.370162 0.000000
0.975160 0.376103 0.000000
1.000000 0.378146 0.000000
0.000000 0.072600 0.000000
0.126057 0.076256 0.000000
0.243296 0.083645 0.000000
0.348213 0.098089 0.000000
0.437865 0.114872 0.000000
0.507417 0.138281 0.000000
0.566262 0.164208 0.000000
0.614662 0.191771 0.000000
0.655936 0.221765 0.000000
0.692405 0.251870 0.000000
0.724129 0.283319 0.000000
0.752971 0.314003 0.000000
0.779573 0.344822 0.000000
0.806008 0.372501 0.000000
0.831709 0.397576 0.000000
0.858370 0.419444 0.000000
0.885128 0.437865 0.000000
0.912916 0.452603 0.000000
0.941296 0.462871 0.000000
0.970481 0.469449 0.000000
1.000000 0.471365 0.000000
0.000000 0.092623 0.000000
0.120243 0.096382 0.000000
0.232308 0.105391 0.000000
0.332710 0.122231 0.000000
0.419444 0.141630 0.000000
0.485867 0.168237 0.000000
0.542291 0.197930 0.000000
0.589219 0.229624 0.000000
0.629429 0.263481 0.000000
0.664316 0.297333 0.000000
0.694708 0.332411 0.000000
0.722728 0.366639 0.000000
0.748545 0.400806 0.000000
0.775514 0.432229 0.000000
0.802818 0.460639 0.000000
0.831763 0.485867 0.000000
0.861719 0.507417 0.000000
0.894314 0.525006 0.000000
0.928373 0.537408 0.000000
0.963841 0.545159 0.000000
1.000000 0.547627 0.000000
0.000000 0.113631 0.000000
0.113053 0.118279 0.000000
0.218844 0.128106 0.000000
0.314323 0.146660 0.000000
0.397576 0.168291 0.000000
0.460639 0.197182 0.000000
0.514444 0.229463 0.000000
0.559666 0.264081 0.000000
0.598632 0.300852 0.000000
0.631914 0.337634 0.000000
0.660985 0.375550 0.000000
0.688312 0.412576 0.000000
0.713827 0.449249 0.000000
0.741529 0.483355 0.000000
0.770537 0.514444 0.000000
0.802070 0.542291 0.000000
0.835792 0.566262 0.000000
0.873755 0.585945 0.000000
0.914110 0.600150 0.000000
0.956502 0.608856 0.000000
1.000000 0.611759 0.000000
0.000000 0.136246 0.000000
0.105186 0.140612 0.000000
0.203907 0.151606 0.000000
0.293504 0.170896 0.000000
0.372501 0.193992 0.000000
0.432229 0.224486 0.000000
0.483355 0.258471 0.000000
0.526561 0.295166 0.000000
0.563990 0.334019 0.000000
0.595680 0.373088 0.000000
0.623397 0.413087 0.000000
0.650086 0.452116 0.000000
0.675785 0.490471 0.000000
0.704834 0.526561 0.000000
0.735919 0.559666 0.000000
0.770376 0.589219 0.000000
0.808229 0.614662 0.000000
0.852060 0.635671 0.000000
0.899240 0.651086 0.000000
0.948843 0.660578 0.000000
1.000000 0.663771 0.000000
0.000000 0.161028 0.000000
0.096277 0.165452 0.000000
0.187045 0.176564 0.000000
0.270218 0.195989 0.000000
0.344822 0.220427 0.000000
0.400806 0.251455 0.000000
0.449249 0.286173 0.000000
0.490471 0.324215 0.000000
0.526550 0.364801 0.000000
0.556478 0.405351 0.000000
0.583015 0.446711 0.000000
0.609184 0.487129 0.000000
0.635199 0.526550 0.000000
0.665981 0.563990 0.000000
0.699148 0.598632 0.000000
0.736519 0.629429 0.000000
0.778235 0.655936 0.000000
0.828369 0.678093 0.000000
0.882842 0.694845 0.000000
0.940288 0.705260 0.000000
1.000000 0.708662 0.000000
0.000000 0.187609 0.000000
0.086722 0.191867 0.000000
0.168887 0.202974 0.000000
0.245171 0.222572 0.000000
0.314003 0.247029 0.000000
0.366639 0.277272 0.000000
0.412576 0.311688 0.000000
0.452116 0.349914 0.000000
0.487129 0.390816 0.000000
0.515824 0.432062 0.000000
0.541964 0.474165 0.000000
0.567938 0.515824 0.000000
0.594649 0.556478 0.000000
0.626912 0.595680 0.000000
0.662366 0.631914 0.000000
0.702667 0.664316 0.000000
0.748130 0.692405 0.000000
0.804432 0.715453 0.000000
0.866040 0.732909 0.000000
0.931549 0.743671 0.000000
1.000000 0.747337 0.000000
0.000000 0.217855 0.000000
0.077523 0.221913 0.000000
0.151293 0.233330 0.000000
0.220495 0.252080 0.000000
0.283319 0.275871 0.000000
0.332411 0.305292 0.000000
0.375550 0.339015 0.000000
0.413087 0.376603 0.000000
0.446711 0.416985 0.000000
0.474165 0.458036 0.000000
0.500000 0.500000 0.000000
0.525835 0.541964 0.000000
0.553289 0.583015 0.000000
0.586913 0.623397 0.000000
0.624450 0.660985 0.000000
0.667589 0.694708 0.000000
0.716681 0.724129 0.000000
0.779505 0.747920 0.000000
0.848707 0.766670 0.000000
0.922477 0.778087 0.000000
1.000000 0.782145 0.000000
0.000000 0.252663 0.000000
0.068451 0.256329 0.000000
0.133960 0.267091 0.000000
0.195568 0.284547 0.000000
0.251870 0.307595 0.000000
0.297333 0.335684 0.000000
0.337634 0.368086 0.000000
0.373088 0.404320 0.000000
0.405351 0.443522 0.000000
0.432062 0.484176 0.000000
0.458036 0.525835 0.000000
0.484176 0.567938 0.000000
0.512871 0.609184 0.000000
0.547884 0.650086 0.000000
0.587424 0.688312 0.000000
0.633361 0.722728 0.000000
0.685997 0.752971 0.000000
0.754829 0.777428 0.000000
0.831113 0.797026 0.000000
0.913278 0.808133 0.000000
1.000000 0.812391 0.000000
0.000000 0.291338 0.000000
0.059712 0.294740 0.000000
0.117158 0.305155 0.000000
0.171631 0.321907 0.000000
0.221765 0.344064 0.000000
0.263481 0.370571 0.000000
0.300852 0.401368 0.000000
0.334019 0.436010 0.000000
0.364801 0.473450 0.000000
0.390816 0.512871 0.000000
0.416985 0.553289 0.000000
0.443522 0.594649 0.000000
0.473450 0.635199 0.000000
0.509529 0.675785 0.000000
0.550751 0.713827 0.000000
0.599194 0.748545 0.000000
0.655178 0.779573 0.000000
0.729782 0.804011 0.000000
0.812955 0.823436 0.000000
0.903723 0.834548 0.000000
1.000000 0.838972 0.000000
0.000000 0.336229 0.000000
0.051157 0.339422 0.000000
0.100760 0.348914 0.000000
0.147940 0.364329 0.000000
0.191771 0.385338 0.000000
0.229624 0.410781 0.000000
0.264081 0.440334 0.000000
0.295166 0.473439 0.000000
0.324215 0.509529 0.000000
0.349914 0.547884 0.000000
0.376603 0.586913 0.000000
0.404320 0.626912 0.000000
0.436010 0.665981 0.000000
0.473439 0.704834 0.000000
0.516645 0.741529 0.000000
0.567771 0.775514 0.000000
0.627499 0.806008 0.000000
0.706496 0.829104 0.000000
0.796093 0.848394 0.000000
0.894814 0.859388 0.000000
1.000000 0.863754 0.000000
0.000000 0.388241 0.000000
0.043498 0.391144 0.000000
0.085890 0.399850 0.000000
0.126245 0.414055 0.000000
0.164208 0.433738 0.000000
0.197930 0.457709 0.000000
0.229463 0.485556 0.000000
0.258471 0.516645 0.000000
0.286173 0.550751 0.000000
0.311688 0.587424 0.000000
0.339015 0.624450 0.000000
0.368086 0.662366 0.000000
0.401368 0.699148 0.000000
0.440334 0.735919 0.000000
0.485556 0.770537 0.000000
0.539361 0.802818 0.000000
0.602424 0.831709 0.000000
0.685677 0.853340 0.000000
0.781156 0.871894 0.000000
0.886947 0.881721 0.000000
1.000000 0.886369 0.000000
0.000000 0.452373 0.000000
0.036159 0.454841 0.000000
0.071627 0.462592 0.000000
0.105686 0.474994 0.000000
0.138281 0.492583 0.000000
0.168237 0.514133 0.000000
0.197182 0.539361 0.000000
0.224486 0.567771 0.000000
0.251455 0.599194 0.000000
0.277272 0.633361 0.000000
0.305292 0.667589 0.000000
0.335684 0.702667 0.000000
0.370571 0.736519 0.000000
0.410781 0.770376 0.000000
0.457709 0.802070 0.000000
0.514133 0.831763 0.000000
0.580556 0.858370 0.000000
0.667290 0.877769 0.000000
0.767692 0.894609 0.000000
0.879757 0.903618 0.000000
1.000000 0.907377 0.000000
0.000000 0.528635 0.000000
0.029519 0.530551 0.000000
0.058704 0.537129 0.000000
0.087084 0.547397 0.000000
0.114872 0.562135 0.000000
0.141630 0.580556 0.000000
0.168291 0.602424 0.000000
0.193992 0.627499 0.000000
0.220427 0.655178 0.000000
0.247029 0.685997 0.000000
0.275871 0.716681 0.000000
0.307595 0.748130 0.000000
0.344064 0.778235 0.000000
0.385338 0.808229 0.000000
0.433738 0.835792 0.000000
0.492583 0.861719 0.000000
0.562135 0.885128 0.000000
0.651787 0.901911 0.000000
0.756704 0.916355 0.000000
0.873943 0.923744 0.000000
1.000000 0.927400 0.000000
0.000000 0.621854 0.000000
0.024840 0.623897 0.000000
0.049623 0.629838 0.000000
0.073887 0.638987 0.000000
0.098089 0.651787 0.000000
0.122231 0.667290 0.000000
0.146660 0.685677 0.000000
0.170896 0.706496 0.000000
0.195989 0.729782 0.000000
0.222572 0.754829 0.000000
0.252080 0.779505 0.000000
0.284547 0.804432 0.000000
0.321907 0.828369 0.000000
0.364329 0.852060 0.000000
0.414055 0.873755 0.000000
0.474994 0.894314 0.000000
0.547397 0.912916 0.000000
0.638987 0.926113 0.000000
0.747369 0.937739 0.000000
0.868981 0.943703 0.000000
1.000000 0.946353 0.000000
0.000000 0.733983 0.000000
0.020590 0.735872 0.000000
0.041403 0.740618 0.000000
0.062261 0.747369 0.000000
0.083645 0.756704 0.000000
0.105391 0.767692 0.000000
0.128106 0.781156 0.000000
0.151606 0.796093 0.000000
0.176564 0.812955 0.000000
0.202974 0.831113 0.000000
0.233330 0.848707 0.000000
0.267091 0.866040 0.000000
0.305155 0.882842 0.000000
0.348914 0.899240 0.000000
0.399850 0.914110 0.000000
0.462592 0.928373 0.000000
0.537129 0.941296 0.000000
0.629838 0.950377 0.000000
0.740618 0.958597 0.000000
0.865133 0.962751 0.000000
1.000000 0.964254 0.000000
0.000000 0.861538 0.000000
0.018514 0.862539 0.000000
0.037249 0.865133 0.000000
0.056297 0.868981 0.000000
0.076256 0.873943 0.000000
0.096382 0.879757 0.000000
0.118279 0.886947 0.000000
0.140612 0.894814 0.000000
0.165452 0.903723 0.000000
0.191867 0.913278 0.000000
0.221913 0.922477 0.000000
0.256329 0.931549 0.000000
0.294740 0.940288 0.000000
0.339422 0.948843 0.000000
0.391144 0.956502 0.000000
0.454841 0.963841 0.000000
0.530551 0.970481 0.000000
0.623897 0.975160 0.000000
0.735872 0.979410 0.000000
0.862539 0.981486 0.000000
1.000000 0.982465 0.000000
0.000000 1.000000 0.000000
0.017535 1.000000 0.000000
0.035746 1.000000 0.000000
0.053647 1.000000 0.000000
0.072600 1.000000 0.000000
0.092623 1.000000 0.000000
0.113631 1.000000 0.000000
0.136246 1.000000 0.000000
0.161028 1.000000 0.000000
0.187609 1.000000 0.000000
0.217855 1.000000 0.000000
0.252663 1.000000 0.000000
0.291338 1.000000 0.000000
0.336229 1.000000 0.000000
0.388241 1.000000 0.000000
0.452373 1.000000 0.000000
0.528635 1.000000 0.000000
0.621854 1.000000 0.000000
0.733983 1.000000 0.000000
0.861538 1.000000 0.000000
1.000000 1.000000 0.000000
0.000000 0.000000 0.082500
0.138462 0.000000 0.082500
0.266017 0.000000 0.082500
0.378146 0.000000 0.082500
0.471365 0.000000 0.082500
0.547627 0.000000 0.082500
0.611759 0.000000 0.082500
0.663771 0.000000 0.082500
0.708662 0.000000 0.082500
0.747337 0.000000 0.082500
0.782145 0.000000 0.082500
0.812391 0.000000 0.082500
0.838972 0.000000 0.082500
0.863754 0.000000 0.082500
0.886369 0.000000 0.082500
0.907377 0.000000 0.082500
0.927400 0.000000 0.082500
0.946353 0.000000 0.082500
0.964254 0.000000 0.082500
0.982465 0.000000 0.082500
1.000000 0.000000 0.082500
0.000000 0.017535 0.082500
0.137461 0.018514 0.082500
0.264128 0.020590 0.082500
0.376103 0.024840 0.082500
0.469449 0.029519 0.082500
0.545159 0.036159 0.082500
0.608856 0.043498 0.082500
0.660578 0.051157 0.082500
0.705260 0.059712 0.082500
0.743671 0.068451 0.082500
0.778087 0.077523 0.082500
0.808133 0.086722 0.082500
0.834548 0.096277 0.082500
0.859388 0.105186 0.082500
0.881721 0.113053 0.082500
0.903618 0.120243 0.082500
0.923744 0.126057 0.082500
0.943703 0.131019 0.082500
0.962751 0.134867 0.082500
0.981486 0.137461 0.082500
1.000000 0.138462 0.082500
0.000000 0.035746 0.082500
0.134867 0.037249 0.082500
0.259382 0.041403 0.082500
0.370162 0.049623 0.082500
0.462871 0.058704 0.082500
0.537408 0.071627 0.082500
0.600150 0.085890 0.082500
0.651086 0.100760 0.082500
0.694845 0.117158 0.082500
0.732909 0.133960 0.082500
0.766670 0.151293 0.082500
0.797026 0.168887 0.082500
0.823436 0.187045 0.082500
0.848394 0.203907 0.082500
0.871894 0.218844 0.082500
0.894609 0.232308 0.082500
0.916355 0.243296 0.082500
0.937739 0.252631 0.082500
0.958597 0.259382 0.082500
0.979410 0.264128 0.082500
1.000000 0.266017 0.082500
0.000000 0.053647 0.082500
0.131019 0.056297 0.082500
0.252631 0.062261 0.082500
0.361013 0.073887 0.082500
0.452603 0.087084 0.082500
0.525006 0.105686 0.082500
0.585945 0.126245 0.082500
0.635671 0.147940 0.082500
0.678093 0.171631 0.082500
0.715453 0.195568 0.082500
0.747920 0.220495 0.082500
0.777428 0.245171 0.082500
0.804011 0.270218 0.082500
0.829104 0.293504 0.082500
0.853340 0.314323 0.082500
0.877769 0.332710 0.082500
0.901911 0.348213 0.082500
0.926113 0.361013 0.082500
0.950377 0.370162 0.082500
0.975160 0.376103 0.082500
1.000000 0.378146 0.082500
0.000000 0.072600 0.082500
0.126057 0.076256 0.082500
0.243296 0.083645 0.082500
0.348213 0.098089 0.082500
0.437865 0.114872 0.082500
0.507417 0.138281 0.082500
0.566262 0.164208 0.082500
0.614662 0.191771 0.082500
0.655936 0.221765 0.082500
0.692405 0.251870 0.082500
0.724129 0.283319 0.082500
0.752971 0.314003 0.082500
0.779573 0.344822 0.082500
0.806008 0.372501 0.082500
0.831709 0.397576 0.082500
0.858370 0.419444 0.082500
0.885128 0.437865 0.082500
0.912916 0.452603 0.082500
0.941296 0.462871 0.082500
0.970481 0.469449 0.082500
1.000000 0.471365 0.082500
0.000000 0.092623 0.082500
0.120243 0.096382 0.082500
0.232308 0.105391 0.082500
0.332710 0.122231 0.082500
0.419444 0.141630 0.082500
0.485867 0.168237 0.082500
0.542291 0.197930 0.082500
0.589219 0.229624 0.082500
0.629429 0.263481 0.082500
0.664316 0.297333 0.082500
0.694708 0.332411 0.082500
0.722728 0.366639 0.082500
0.748545 0.400806 0.082500
0.775514 0.432229 0.082500
0.802818 0.460639 0.082500
0.831763 0.485867 0.082500
0.861719 0.507417 0.082500
0.894314 0.525006 0.082500
0.928373 0.537408 0.082500
0.963841 0.545159 0.082500
1.000000 0.547627 0.082500
0.000000 0.113631 0.082500
0.113053 0.118279 0.082500
0.218844 0.128106 0.082500
0.314323 0.146660 0.082500
0.397576 0.168291 0.082500
0.460639 0.197182 0.082500
0.514444 0.229463 0.082500
0.559666 0.264081 0.082500
0.598632 0.300852 0.082500
0.631914 0.337634 0.082500
0.660985 0.375550 0.082500
0.688312 0.412576 0.082500
0.713827 0.449249 0.082500
0.741529 0.483355 0.082500
0.770537 0.514444 0.082500
0.802070 0.542291 0.082500
0.835792 0.566262 0.082500
0.873755 0.585945 0.082500
0.914110 0.600150 0.082500
0.956502 0.608856 0.082500
1.000000 0.611759 0.082500
0.000000 0.136246 0.082500
0.105186 0.140612 0.082500
0.203907 0.151606 0.082500
0.293504 0.170896 0.082500
0.372501 0.193992 0.082500
0.432229 0.224486 0.082500
0.483355 0.258471 0.082500
0.526561 0.295166 0.082500
0.563990 0.334019 0.082500
0.595680 0.373088 0.082500
0.623397 0.413087 0.082500
0.650086 0.452116 0.082500
0.675785 0.490471 0.082500
0.704834 0.526561 0.082500
0.735919 0.559666 0.082500
0.770376 0.589219 0.082500
0.808229 0.614662 0.082500
0.852060 0.635671 0.082500
0.899240 0.651086 0.082500
0.948843 0.660578 0.082500
1.000000 0.663771 0.082500
0.000000 0.161028 0.082500
0.096277 0.165452 0.082500
0.187045 0.176564 0.082500
0.270218 0.195989 0.082500
0.344822 0.220427 0.082500
0.400806 0.251455 0.082500
0.449249 0.286173 0.082500
0.490471 0.324215 0.082500
0.526550 0.364801 0.082500
0.556478 0.405351 0.082500
0.583015 0.446711 0.082500
0.609184 0.487129 0.082500
0.635199 0.526550 0.082500
0.665981 0.563990 0.082500
0.699148 0.598632 0.082500
0.736519 0.629429 0.082500
0.778235 0.655936 0.082500
0.828369 0.678093 0.082500
0.882842 0.694845 0.082500
0.940288 0.705260 0.082500
1.000000 0.708662 0.082500
0.000000 0.187609 0.082500
0.086722 0.191867 0.082500
0.168887 0.202974 0.082500
0.245171 0.222572 0.082500
0.314003 0.247029 0.082500
0.366639 0.277272 0.082500
0.412576 0.311688 0.082500
0.452116 0.349914 0.082500
0.487129 0.390816 0.082500
0.515824 0.432062 0.082500
0.541964 0.474165 0.082500
0.567938 0.515824 0.082500
0.594649 0.556478 0.082500
0.626912 0.595680 0.082500
0.662366 0.631914 0.082500
0.702667 0.664316 0.082500
0.748130 0.692405 0.082500
0.804432 0.715453 0.082500
0.866040 0.732909 0.082500
0.931549 0.743671 0.082500
1.000000 0.747337 0.082500
0.000000 0.217855 0.082500
0.077523 0.221913 0.082500
0.151293 0.233330 0.082500
0.220495 0.252080 0.082500
0.283319 0.275871 0.082500
0.332411 0.305292 0.082500
0.375550 0.339015 0.082500
0.413087 0.376603 0.082500
0.446711 0.416985 0.082500
0.474165 0.458036 0.082500
0.500000 0.500000 0.082500
0.525835 0.541964 0.082500
0.553289 0.583015 0.082500
0.586913 0.623397 0.082500
0.624450 0.660985 0.082500
0.667589 0.694708 0.082500
0.716681 0.724129 0.082500
0.779505 0.747920 0.082500
0.848707 0.766670 0.082500
0.922477 0.778087 0.082500
1.000000 0.782145 0.082500
0.000000 0.252663 0.082500
0.068451 0.256329 0.082500
0.133960 0.267091 0.082500
0.195568 0.284547 0.082500
0.251870 0.307595 0.082500
0.297333 0.335684 0.082500
0.337634 0.368086 0.082500
0.373088 0.404320 0.082500
0.405351 0.443522 0.082500
0.432062 0.484176 0.082500
0.458036 0.525835 0.082500
0.484176 0.567938 0.082500
0.512871 0.609184 0.082500
0.547884 0.650086 0.082500
0.587424 0.688312 0.082500
0.633361 0.722728 0.082500
0.685997 0.752971 0.082500
0.754829 0.777428 0.082500
0.831113 0.797026 0.082500
0.913278 0.808133 0.082500
1.000000 0.812391 0.082500
0.000000 0.291338 0.082500
0.059712 0.294740 0.082500
0.117158 0.305155 0.082500
0.171631 0.321907 0.082500
0.221765 0.344064 0.082500
0.263481 0.370571 0.082500
0.300852 0.401368 0.082500
0.334019 0.436010 0.082500
0.364801 0.473450 0.082500
0.390816 0.512871 0.082500
0.416985 0.553289 0.082500
0.443522 0.594649 0.082500
0.473450 0.635199 0.082500
0.509529 0.675785 0.082500
0.550751 0.713827 0.082500
0.599194 0.748545 0.082500
0.655178 0.779573 0.082500
0.729782 0.804011 0.082500
0.812955 0.823436 0.082500
0.903723 0.834548 0.082500
1.000000 0.838972 0.082500
0.000000 0.336229 0.082500
0.051157 0.339422 0.082500
0.100760 0.348914 0.082500
0.147940 0.364329 0.082500
0.191771 0.385338 0.082500
0.229624 0.410781 0.082500
0.264081 0.440334 0.082500
0.295166 0.473439 0.082500
0.324215 0.509529 0.082500
0.349914 0.547884 0.082500
0.376603 0.586913 0.082500
0.404320 0.626912 0.082500
0.436010 0.665981 0.082500
0.473439 0.704834 0.082500
0.516645 0.741529 0.082500
0.567771 0.775514 0.082500
0.627499 0.806008 0.082500
0.706496 0.829104 0.082500
0.796093 0.848394 0.082500
0.894814 0.859388 0.082500
1.000000 0.863754 0.082500
0.000000 0.388241 0.082500
0.043498 0.391144 0.082500
0.085890 0.399850 0.082500
0.126245 0.414055 0.082500