# vtk DataFile Version 2.0
Mesh for Fierro
ASCII 
DATASET UNSTRUCTURED_GRID

POINTS 2205 float
0.000000 0.000000 0.000000
0.203504 0.000000 0.000000
0.373526 0.000000 0.000000
0.502569 0.000000 0.000000
0.596382 0.000000 0.000000
0.667400 0.000000 0.000000
0.723159 0.000000 0.000000
0.765005 0.000000 0.000000
0.799368 0.000000 0.000000
0.828460 0.000000 0.000000
0.852597 0.000000 0.000000
0.874842 0.000000 0.000000
0.893300 0.000000 0.000000
0.909847 0.000000 0.000000
0.925072 0.000000 0.000000
0.939283 0.000000 0.000000
0.952294 0.000000 0.000000
0.964621 0.000000 0.000000
0.976742 0.000000 0.000000
0.988615 0.000000 0.000000
1.000000 0.000000 0.000000
0.000000 0.011385 0.000000
0.201910 0.013054 0.000000
0.370822 0.016580 0.000000
0.499854 0.023331 0.000000
0.593796 0.030832 0.000000
0.663964 0.041090 0.000000
0.718742 0.052858 0.000000
0.759648 0.065327 0.000000
0.793334 0.079144 0.000000
0.820919 0.093294 0.000000
0.845166 0.107369 0.000000
0.866196 0.122210 0.000000
0.884705 0.137410 0.000000
0.901594 0.151545 0.000000
0.917271 0.163963 0.000000
0.932151 0.175125 0.000000
0.946453 0.184028 0.000000
0.960287 0.191685 0.000000
0.973495 0.197707 0.000000
0.986946 0.201910 0.000000
1.000000 0.203504 0.000000
0.000000 0.023258 0.000000
0.197707 0.026505 0.000000
0.364035 0.033008 0.000000
0.492234 0.046121 0.000000
0.585827 0.060717 0.000000
0.655140 0.080583 0.000000
0.708778 0.103424 0.000000
0.748766 0.127255 0.000000
0.781118 0.153601 0.000000
0.808004 0.179968 0.000000
0.831379 0.206732 0.000000
0.851806 0.233744 0.000000
0.869842 0.260941 0.000000
0.886746 0.285656 0.000000
0.902891 0.307222 0.000000
0.919056 0.326150 0.000000
0.934984 0.341466 0.000000
0.951060 0.354407 0.000000
0.966992 0.364035 0.000000
0.983420 0.370822 0.000000
1.000000 0.373526 0.000000
0.000000 0.035379 0.000000
0.191685 0.039713 0.000000
0.354407 0.048940 0.000000
0.480355 0.067816 0.000000
0.573175 0.088742 0.000000
0.640103 0.117072 0.000000
0.690744 0.149052 0.000000
0.728587 0.182073 0.000000
0.757753 0.218275 0.000000
0.783090 0.253201 0.000000
0.804298 0.289081 0.000000
0.823133 0.324183 0.000000
0.839826 0.359193 0.000000
0.856484 0.391081 0.000000
0.873581 0.419103 0.000000
0.892131 0.443589 0.000000
0.911513 0.463880 0.000000
0.932184 0.480355 0.000000
0.953879 0.492234 0.000000
0.976669 0.499854 0.000000
1.000000 0.502569 0.000000
0.000000 0.047706 0.000000
0.184028 0.053547 0.000000
0.341466 0.065016 0.000000
0.463880 0.088487 0.000000
0.555598 0.114900 0.000000
0.619612 0.150325 0.000000
0.667442 0.190075 0.000000
0.703401 0.230789 0.000000
0.730283 0.275271 0.000000
0.753447 0.317175 0.000000
0.772241 0.360528 0.000000
0.789451 0.401540 0.000000
0.804846 0.441594 0.000000
0.822117 0.476344 0.000000
0.840654 0.507115 0.000000
0.861836 0.533600 0.000000
0.885100 0.555598 0.000000
0.911258 0.573175 0.000000
0.939283 0.585827 0.000000
0.969168 0.593796 0.000000
1.000000 0.596382 0.000000
0.000000 0.060717 0.000000
0.175125 0.067849 0.000000
0.326150 0.080944 0.000000
0.443589 0.107869 0.000000
0.533600 0.138164 0.000000
0.594012 0.177737 0.000000
0.638684 0.221564 0.000000
0.672200 0.266269 0.000000
0.696801 0.313824 0.000000
0.717785 0.358793 0.000000
0.733469 0.404828 0.000000
0.748343 0.448616 0.000000
0.761667 0.490989 0.000000
0.778583 0.529417 0.000000
0.798390 0.563772 0.000000
0.822263 0.594012 0.000000
0.849675 0.619612 0.000000
0.882928 0.640103 0.000000
0.919417 0.655140 0.000000
0.958910 0.663964 0.000000
1.000000 0.667400 0.000000
0.000000 0.074928 0.000000
0.163963 0.082729 0.000000
0.307222 0.097109 0.000000
0.419103 0.126419 0.000000
0.507115 0.159346 0.000000
0.563772 0.201610 0.000000
0.605787 0.247788 0.000000
0.636967 0.295231 0.000000
0.659445 0.344867 0.000000
0.677836 0.392049 0.000000
0.690770 0.439535 0.000000
0.703199 0.484825 0.000000
0.714722 0.528486 0.000000
0.731448 0.568946 0.000000
0.752212 0.605787 0.000000
0.778436 0.638684 0.000000
0.809925 0.667442 0.000000
0.850948 0.690744 0.000000
0.896576 0.708778 0.000000
0.947142 0.718742 0.000000
1.000000 0.723159 0.000000
0.000000 0.090153 0.000000
0.151545 0.098406 0.000000
0.285656 0.113254 0.000000
0.391081 0.143516 0.000000
0.476344 0.177883 0.000000
0.529417 0.221417 0.000000
0.568946 0.268552 0.000000
0.597813 0.317297 0.000000
0.618261 0.367685 0.000000
0.633989 0.416075 0.000000
0.644509 0.464290 0.000000
0.655138 0.510570 0.000000
0.665651 0.555286 0.000000
0.682703 0.597813 0.000000
0.704769 0.636967 0.000000
0.733731 0.672200 0.000000
0.769211 0.703401 0.000000
0.817927 0.728587 0.000000
0.872745 0.748766 0.000000
0.934673 0.759648 0.000000
1.000000 0.765005 0.000000
0.000000 0.106700 0.000000
0.137410 0.115295 0.000000
0.260941 0.130158 0.000000
0.359193 0.160174 0.000000
0.441594 0.195154 0.000000
0.490989 0.238333 0.000000
0.528486 0.285278 0.000000
0.555286 0.334349 0.000000
0.574169 0.385221 0.000000
0.587321 0.433985 0.000000
0.595849 0.482269 0.000000
0.604998 0.529009 0.000000
0.614779 0.574169 0.000000
0.632315 0.618261 0.000000
0.655133 0.659445 0.000000
0.686176 0.696801 0.000000
0.724729 0.730283 0.000000
0.781725 0.757753 0.000000
0.846399 0.781118 0.000000
0.920856 0.793334 0.000000
1.000000 0.799368 0.000000
0.000000 0.125158 0.000000
0.122210 0.133804 0.000000
0.233744 0.148194 0.000000
0.324183 0.176867 0.000000
0.401540 0.210549 0.000000
0.448616 0.251657 0.000000
0.484825 0.296801 0.000000
0.510570 0.344862 0.000000
0.529009 0.395002 0.000000
0.540433 0.443718 0.000000
0.548177 0.492421 0.000000
0.556282 0.540433 0.000000
0.566015 0.587321 0.000000
0.583925 0.633989 0.000000
0.607951 0.677836 0.000000
0.641207 0.717785 0.000000
0.682825 0.753447 0.000000
0.746799 0.783090 0.000000
0.820032 0.808004 0.000000
0.906706 0.820919 0.000000
1.000000 0.828460 0.000000
0.000000 0.147403 0.000000
0.107369 0.154834 0.000000
0.206732 0.168621 0.000000
0.289081 0.195702 0.000000
0.360528 0.227759 0.000000
0.404828 0.266531 0.000000
0.439535 0.309230 0.000000
0.464290 0.355491 0.000000
0.482269 0.404151 0.000000
0.492421 0.451823 0.000000
0.500000 0.500000 0.000000
0.507579 0.548177 0.000000
0.517731 0.595849 0.000000
0.535710 0.644509 0.000000
0.560465 0.690770 0.000000
0.595172 0.733469 0.000000
0.639472 0.772241 0.000000
0.710919 0.804298 0.000000
0.793268 0.831379 0.000000
0.892631 0.845166 0.000000
1.000000 0.852597 0.000000
0.000000 0.171540 0.000000
0.093294 0.179081 0.000000
0.179968 0.191996 0.000000
0.253201 0.216910 0.000000
0.317175 0.246553 0.000000
0.358793 0.282215 0.000000
0.392049 0.322164 0.000000
0.416075 0.366011 0.000000
0.433985 0.412679 0.000000
0.443718 0.459567 0.000000
0.451823 0.507579 0.000000
0.459567 0.556282 0.000000
0.470991 0.604998 0.000000
0.489430 0.655138 0.000000
0.515175 0.703199 0.000000
0.551384 0.748343 0.000000
0.598460 0.789451 0.000000
0.675817 0.823133 0.000000
0.766256 0.851806 0.000000
0.877790 0.866196 0.000000
1.000000 0.874842 0.000000
0.000000 0.200632 0.000000
0.079144 0.206666 0.000000
0.153601 0.218882 0.000000
0.218275 0.242247 0.000000
0.275271 0.269717 0.000000
0.313824 0.303199 0.000000
0.344867 0.340555 0.000000
0.367685 0.381739 0.000000
0.385221 0.425831 0.000000
0.395002 0.470991 0.000000
0.404151 0.517731 0.000000
0.412679 0.566015 0.000000
0.425831 0.614779 0.000000
0.444714 0.665651 0.000000
0.471514 0.714722 0.000000
0.509011 0.761667 0.000000
0.558406 0.804846 0.000000
0.640807 0.839826 0.000000
0.739059 0.869842 0.000000
0.862590 0.884705 0.000000
1.000000 0.893300 0.000000
0.000000 0.234995 0.000000
0.065327 0.240352 0.000000
0.127255 0.251234 0.000000
0.182073 0.271413 0.000000
0.230789 0.296599 0.000000
0.266269 0.327800 0.000000
0.295231 0.363033 0.000000
0.317297 0.402187 0.000000
0.334349 0.444714 0.000000
0.344862 0.489430 0.000000
0.355491 0.535710 0.000000
0.366011 0.583925 0.000000
0.381739 0.632315 0.000000
0.402187 0.682703 0.000000
0.431054 0.731448 0.000000
0.470583 0.778583 0.000000
0.523656 0.822117 0.000000
0.608919 0.856484 0.000000
0.714344 0.886746 0.000000
0.848455 0.901594 0.000000
1.000000 0.909847 0.000000
0.000000 0.276841 0.000000
0.052858 0.281258 0.000000
0.103424 0.291222 0.000000
0.149052 0.309256 0.000000
0.190075 0.332558 0.000000
0.221564 0.361316 0.000000
0.247788 0.394213 0.000000
0.268552 0.431054 0.000000
0.285278 0.471514 0.000000
0.296801 0.515175 0.000000
0.309230 0.560465 0.000000
0.322164 0.607951 0.000000
0.340555 0.655133 0.000000
0.363033 0.704769 0.000000
0.394213 0.752212 0.000000
0.436228 0.798390 0.000000
0.492885 0.840654 0.000000
0.580897 0.873581 0.000000
0.692778 0.902891 0.000000
0.836037 0.917271 0.000000
1.000000 0.925072 0.000000
0.000000 0.332600 0.000000
0.041090 0.336036 0.000000
0.080583 0.344860 0.000000
0.117072 0.359897 0.000000
0.150325 0.380388 0.000000
0.177737 0.405988 0.000000
0.201610 0.436228 0.000000
0.221417 0.470583 0.000000
0.238333 0.509011 0.000000
0.251657 0.551384 0.000000
0.266531 0.595172 0.000000
0.282215 0.641207 0.000000
0.303199 0.686176 0.000000
0.327800 0.733731 0.000000
0.361316 0.778436 0.000000
0.405988 0.822263 0.000000
0.466400 0.861836 0.000000
0.556411 0.892131 0.000000
0.673850 0.919056 0.000000
0.824875 0.932151 0.000000
1.000000 0.939283 0.000000
0.000000 0.403618 0.000000
0.030832 0.406204 0.000000
0.060717 0.414173 0.000000
0.088742 0.426825 0.000000
0.114900 0.444402 0.000000
0.138164 0.466400 0.000000
0.159346 0.492885 0.000000
0.177883 0.523656 0.000000
0.195154 0.558406 0.000000
0.210549 0.598460 0.000000
0.227759 0.639472 0.000000
0.246553 0.682825 0.000000
0.269717 0.724729 0.000000
0.296599 0.769211 0.000000
0.332558 0.809925 0.000000
0.380388 0.849675 0.000000
0.444402 0.885100 0.000000
0.536120 0.911513 0.000000
0.658534 0.934984 0.000000
0.815972 0.946453 0.000000
1.000000 0.952294 0.000000
0.000000 0.497431 0.000000
0.023331 0.500146 0.000000
0.046121 0.507766 0.000000
0.067816 0.519645 0.000000
0.088487 0.536120 0.000000
0.107869 0.556411 0.000000
0.126419 0.580897 0.000000
0.143516 0.608919 0.000000
0.160174 0.640807 0.000000
[...]
POINT_DATA 2205 
VECTORS pos float 
0.000000 0.000000 0.000000
0.203504 0.000000 0.000000
0.373526 0.000000 0.000000
0.502569 0.000000 0.000000
0.596382 0.000000 0.000000
0.667400 0.000000 0.000000
0.723159 0.000000 0.000000
0.765005 0.000000 0.000000
0.799368 0.000000 0.000000
0.828460 0.000000 0.000000
0.852597 0.000000 0.000000
0.874842 0.000000 0.000000
0.893300 0.000000 0.000000
0.909847 0.000000 0.000000
0.925072 0.000000 0.000000
0.939283 0.000000 0.000000
0.952294 0.000000 0.000000
0.964621 0.000000 0.000000
0.976742 0.000000 0.000000
0.988615 0.000000 0.000000
1.000000 0.000000 0.000000
0.000000 0.011385 0.000000
0.201910 0.013054 0.000000
0.370822 0.016580 0.000000
0.499854 0.023331 0.000000
0.593796 0.030832 0.000000
0.663964 0.041090 0.000000
0.718742 0.052858 0.000000
0.759648 0.065327 0.000000
0.793334 0.079144 0.000000
0.820919 0.093294 0.000000
0.845166 0.107369 0.000000
0.866196 0.122210 0.000000
0.884705 0.137410 0.000000
0.901594 0.151545 0.000000
0.917271 0.163963 0.000000
0.932151 0.175125 0.000000
0.946453 0.184028 0.000000
0.960287 0.191685 0.000000
0.973495 0.197707 0.000000
0.986946 0.201910 0.000000
1.000000 0.203504 0.000000
0.000000 0.023258 0.000000
0.197707 0.026505 0.000000
0.364035 0.033008 0.000000
0.492234 0.046121 0.000000
0.585827 0.060717 0.000000
0.655140 0.080583 0.000000
0.708778 0.103424 0.000000
0.748766 0.127255 0.000000
0.781118 0.153601 0.000000
0.808004 0.179968 0.000000
0.831379 0.206732 0.000000
0.851806 0.233744 0.000000
0.869842 0.260941 0.000000
0.886746 0.285656 0.000000
0.902891 0.307222 0.000000
0.919056 0.326150 0.000000
0.934984 0.341466 0.000000
0.951060 0.354407 0.000000
0.966992 0.364035 0.000000
0.983420 0.370822 0.000000
1.000000 0.373526 0.000000
0.000000 0.035379 0.000000
0.191685 0.039713 0.000000
0.354407 0.048940 0.000000
0.480355 0.067816 0.000000
0.573175 0.088742 0.000000
0.640103 0.117072 0.000000
0.690744 0.149052 0.000000
0.728587 0.182073 0.000000
0.757753 0.218275 0.000000
0.783090 0.253201 0.000000
0.804298 0.289081 0.000000
0.823133 0.324183 0.000000
0.839826 0.359193 0.000000
0.856484 0.391081 0.000000
0.873581 0.419103 0.000000
0.892131 0.443589 0.000000
0.911513 0.463880 0.000000
0.932184 0.480355 0.000000
0.953879 0.492234 0.000000
0.976669 0.499854 0.000000
1.000000 0.502569 0.000000
0.000000 0.047706 0.000000
0.184028 0.053547 0.000000
0.341466 0.065016 0.000000
0.463880 0.088487 0.000000
0.555598 0.114900 0.000000
0.619612 0.150325 0.000000
0.667442 0.190075 0.000000
0.703401 0.230789 0.000000
0.730283 0.275271 0.000000
0.753447 0.317175 0.000000
0.772241 0.360528 0.000000
0.789451 0.401540 0.000000
0.804846 0.441594 0.000000
0.822117 0.476344 0.000000
0.840654 0.507115 0.000000
0.861836 0.533600 0.000000
0.885100 0.555598 0.000000
0.911258 0.573175 0.000000
0.939283 0.585827 0.000000
0.969168 0.593796 0.000000
1.000000 0.596382 0.000000
0.000000 0.060717 0.000000
0.175125 0.067849 0.000000
0.326150 0.080944 0.000000
0.443589 0.107869 0.000000
0.533600 0.138164 0.000000
0.594012 0.177737 0.000000
0.638684 0.221564 0.000000
0.672200 0.266269 0.000000
0.696801 0.313824 0.000000
0.717785 0.358793 0.000000
0.733469 0.404828 0.000000
0.748343 0.448616 0.000000
0.761667 0.490989 0.000000
0.778583 0.529417 0.000000
0.798390 0.563772 0.000000
0.822263 0.594012 0.000000
0.849675 0.619612 0.000000
0.882928 0.640103 0.000000
0.919417 0.655140 0.000000
0.958910 0.663964 0.000000
1.000000 0.667400 0.000000
0.000000 0.074928 0.000000
0.163963 0.082729 0.000000
0.307222 0.097109 0.000000
0.419103 0.126419 0.000000
0.507115 0.159346 0.000000
0.563772 0.201610 0.000000
0.605787 0.247788 0.000000
0.636967 0.295231 0.000000
0.659445 0.344867 0.000000
0.677836 0.392049 0.000000
0.690770 0.439535 0.000000
0.703199 0.484825 0.000000
0.714722 0.528486 0.000000
0.731448 0.568946 0.000000
0.752212 0.605787 0.000000
0.778436 0.638684 0.000000
0.809925 0.667442 0.000000
0.850948 0.690744 0.000000
0.896576 0.708778 0.000000
0.947142 0.718742 0.000000
1.000000 0.723159 0.000000
0.000000 0.090153 0.000000
0.151545 0.098406 0.000000
0.285656 0.113254 0.000000
0.391081 0.143516 0.000000
0.476344 0.177883 0.000000
0.529417 0.221417 0.000000
0.568946 0.268552 0.000000
0.597813 0.317297 0.000000
0.618261 0.367685 0.000000
0.633989 0.416075 0.000000
0.644509 0.464290 0.000000
0.655138 0.510570 0.000000
0.665651 0.555286 0.000000
0.682703 0.597813 0.000000
0.704769 0.636967 0.000000
0.733731 0.672200 0.000000
0.769211 0.703401 0.000000
0.817927 0.728587 0.000000
0.872745 0.748766 0.000000
0.934673 0.759648 0.000000
1.000000 0.765005 0.000000
0.000000 0.106700 0.000000
0.137410 0.115295 0.000000
0.260941 0.130158 0.000000
0.359193 0.160174 0.000000
0.441594 0.195154 0.000000
0.490989 0.238333 0.000000
0.528486 0.285278 0.000000
0.555286 0.334349 0.000000
0.574169 0.385221 0.000000
0.587321 0.433985 0.000000
0.595849 0.482269 0.000000
0.604998 0.529009 0.000000
0.614779 0.574169 0.000000
0.632315 0.618261 0.000000
0.655133 0.659445 0.000000
0.686176 0.696801 0.000000
0.724729 0.730283 0.000000
0.781725 0.757753 0.000000
0.846399 0.781118 0.000000
0.920856 0.793334 0.000000
1.000000 0.799368 0.000000
0.000000 0.125158 0.000000
0.122210 0.133804 0.000000
0.233744 0.148194 0.000000
0.324183 0.176867 0.000000
0.401540 0.210549 0.000000
0.448616 0.251657 0.000000
0.484825 0.296801 0.000000
0.510570 0.344862 0.000000
0.529009 0.395002 0.000000
0.540433 0.443718 0.000000
0.548177 0.492421 0.000000
0.556282 0.540433 0.000000
0.566015 0.587321 0.000000
0.583925 0.633989 0.000000
0.607951 0.677836 0.000000
0.641207 0.717785 0.000000
0.682825 0.753447 0.000000
0.746799 0.783090 0.000000
0.820032 0.808004 0.000000
0.906706 0.820919 0.000000
1.000000 0.828460 0.000000
0.000000 0.147403 0.000000
0.107369 0.154834 0.000000
0.206732 0.168621 0.000000
0.289081 0.195702 0.000000
0.360528 0.227759 0.000000
0.404828 0.266531 0.000000
0.439535 0.309230 0.000000
0.464290 0.355491 0.000000
0.482269 0.404151 0.000000
0.492421 0.451823 0.000000
0.500000 0.500000 0.000000
0.507579 0.548177 0.000000
0.517731 0.595849 0.000000
0.535710 0.644509 0.000000
0.560465 0.690770 0.000000
0.595172 0.733469 0.000000
0.639472 0.772241 0.000000
0.710919 0.804298 0.000000
0.793268 0.831379 0.000000
0.892631 0.845166 0.000000
1.000000 0.852597 0.000000
0.000000 0.171540 0.000000
0.093294 0.179081 0.000000
0.179968 0.191996 0.000000
0.253201 0.216910 0.000000
0.317175 0.246553 0.000000
0.358793 0.282215 0.000000
0.392049 0.322164 0.000000
0.416075 0.366011 0.000000
0.433985 0.412679 0.000000
0.443718 0.459567 0.000000
0.451823 0.507579 0.000000
0.459567 0.556282 0.000000
0.470991 0.604998 0.000000
0.489430 0.655138 0.000000
0.515175 0.703199 0.000000
0.551384 0.748343 0.000000
0.598460 0.789451 0.000000
0.675817 0.823133 0.000000
0.766256 0.851806 0.000000
0.877790 0.866196 0.000000
1.000000 0.874842 0.000000
0.000000 0.200632 0.000000
0.079144 0.206666 0.000000
0.153601 0.218882 0.000000
0.218275 0.242247 0.000000
0.275271 0.269717 0.000000
0.313824 0.303199 0.000000
0.344867 0.340555 0.000000
0.367685 0.381739 0.000000
0.385221 0.425831 0.000000
0.395002 0.470991 0.000000
0.404151 0.517731 0.000000
0.412679 0.566015 0.000000
0.425831 0.614779 0.000000
0.444714 0.665651 0.000000
0.471514 0.714722 0.000000
0.509011 0.761667 0.000000
0.558406 0.804846 0.000000
0.640807 0.839826 0.000000
0.739059 0.869842 0.000000
0.862590 0.884705 0.000000
1.000000 0.893300 0.000000
0.000000 0.234995 0.000000
0.065327 0.240352 0.000000
0.127255 0.251234 0.000000
0.182073 0.271413 0.000000
0.230789 0.296599 0.000000
0.266269 0.327800 0.000000
0.295231 0.363033 0.000000
0.317297 0.402187 0.000000
0.334349 0.444714 0.000000
0.344862 0.489430 0.000000
0.355491 0.535710 0.000000
0.366011 0.583925 0.000000
0.381739 0.632315 0.000000
0.402187 0.682703 0.000000
0.431054 0.731448 0.000000
0.470583 0.778583 0.000000
0.523656 0.822117 0.000000
0.608919 0.856484 0.000000
0.714344 0.886746 0.000000
0.848455 0.901594 0.000000
1.000000 0.909847 0.000000
0.000000 0.276841 0.000000
0.052858 0.281258 0.000000
0.103424 0.291222 0.000000
0.149052 0.309256 0.000000
0.190075 0.332558 0.000000
0.221564 0.361316 0.000000
0.247788 0.394213 0.000000
0.268552 0.431054 0.000000
0.285278 0.471514 0.000000
0.296801 0.515175 0.000000
0.309230 0.560465 0.000000
0.322164 0.607951 0.000000
0.340555 0.655133 0.000000
0.363033 0.704769 0.000000
0.394213 0.752212 0.000000
0.436228 0.798390 0.000000
0.492885 0.840654 0.000000
0.580897 0.873581 0.000000
0.692778 0.902891 0.000000
0.836037 0.917271 0.000000
1.000000 0.925072 0.000000
0.000000 0.332600 0.000000
0.041090 0.336036 0.000000
0.080583 0.344860 0.000000
0.117072 0.359897 0.000000
0.150325 0.380388 0.000000
0.177737 0.405988 0.000000
0.201610 0.436228 0.000000
0.221417 0.470583 0.000000
0.238333 0.509011 0.000000
0.251657 0.551384 0.000000
0.266531 0.595172 0.000000
0.282215 0.641207 0.000000
0.303199 0.686176 0.000000
0.327800 0.733731 0.000000
0.361316 0.778436 0.000000
0.405988 0.822263 0.000000
0.466400 0.861836 0.000000
0.556411 0.892131 0.000000
0.673850 0.919056 0.000000
0.824875 0.932151 0.000000
1.000000 0.939283 0.000000
0.000000 0.403618 0.000000
0.030832 0.406204 0.000000
0.060717 0.414173 0.000000
0.088742 0.426825 0.000000
0.114900 0.444402 0.000000
0.138164 0.466400 0.000000
0.159346 0.492885 0.000000
0.177883 0.523656 0.000000
0.195154 0.558406 0.000000
0.210549 0.598460 0.000000
0.227759 0.639472 0.000000
0.246553 0.682825 0.000000
0.269717 0.724729 0.000000
0.296599 0.769211 0.000000
0.332558 0.809925 0.000000
0.380388 0.849675 0.000000
0.444402 0.885100 0.000000
0.536120 0.911513 0.000000
0.658534 0.934984 0.000000
0.815972 0.946453 0.000000
1.000000 0.952294 0.000000
0.000000 0.497431 0.000000
0.023331 0.500146 0.000000
0.046121 0.507766 0.000000
0.067816 0.519645 0.000000
0.088487 0.536120 0.000000
0.107869 0.556411 0.000000
0.126419 0.580897 0.000000
0.143516 0.608919 0.000000
0.160174 0.640807 0.000000
0.176867 0.675817 0.000000
0.195702 0.710919 0.000000
0.216910 0.746799 0.000000
0.242247 0.781725 0.000000
0.271413 0.817927 0.000000
0.309256 0.850948 0.000000
0.359897 0.882928 0.000000
0.426825 0.911258 0.000000
0.519645 0.932184 0.000000
0.645593 0.951060 0.000000
0.808315 0.960287 0.000000
1.000000 0.964621 0.000000
0.000000 0.626474 0.000000
0.016580 0.629178 0.000000
0.033008 0.635965 0.000000
0.048940 0.645593 0.000000
0.065016 0.658534 0.000000
0.080944 0.673850 0.000000
0.097109 0.692778 0.000000
0.113254 0.714344 0.000000
0.130158 0.739059 0.000000
0.148194 0.766256 0.000000
0.168621 0.793268 0.000000
0.191996 0.820032 0.000000
0.218882 0.846399 0.000000
0.251234 0.872745 0.000000
0.291222 0.896576 0.000000
0.344860 0.919417 0.000000
0.414173 0.939283 0.000000
0.507766 0.953879 0.000000
0.635965 0.966992 0.000000
0.802293 0.973495 0.000000
1.000000 0.976742 0.000000
0.000000 0.796496 0.000000
0.013054 0.798090 0.000000
0.026505 0.802293 0.000000
0.039713 0.808315 0.000000
0.053547 0.815972 0.000000
0.067849 0.824875 0.000000
0.082729 0.836037 0.000000
0.098406 0.848455 0.000000
0.115295 0.862590 0.000000
0.133804 0.877790 0.000000
0.154834 0.892631 0.000000
0.179081 0.906706 0.000000
0.206666 0.920856 0.000000
0.240352 0.934673 0.000000
0.281258 0.947142 0.000000
0.336036 0.958910 0.000000
0.406204 0.969168 0.000000
0.500146 0.976669 0.000000
0.629178 0.983420 0.000000
0.798090 0.986946 0.000000
1.000000 0.988615 0.000000
0.000000 1.000000 0.000000
0.011385 1.000000 0.000000
0.023258 1.000000 0.000000
0.035379 1.000000 0.000000
0.047706 1.000000 0.000000
0.060717 1.000000 0.000000
0.074928 1.000000 0.000000
0.090153 1.000000 0.000000
0.106700 1.000000 0.000000
0.125158 1.000000 0.000000
0.147403 1.000000 0.000000
0.171540 1.000000 0.000000
0.200632 1.000000 0.000000
0.234995 1.000000 0.000000
0.276841 1.000000 0.000000
0.332600 1.000000 0.000000
0.403618 1.000000 0.000000
0.497431 1.000000 0.000000
0.626474 1.000000 0.000000
0.796496 1.000000 0.000000
1.000000 1.000000 0.000000
0.000000 0.000000 0.082500
0.203504 0.000000 0.082500
0.373526 0.000000 0.082500
0.502569 0.000000 0.082500
0.596382 0.000000 0.082500
0.667400 0.000000 0.082500
0.723159 0.000000 0.082500
0.765005 0.000000 0.082500
0.799368 0.000000 0.082500
0.828460 0.000000 0.082500
0.852597 0.000000 0.082500
0.874842 0.000000 0.082500
0.893300 0.000000 0.082500
0.909847 0.000000 0.082500
0.925072 0.000000 0.082500
0.939283 0.000000 0.082500
0.952294 0.000000 0.082500
0.964621 0.000000 0.082500
0.976742 0.000000 0.082500
0.988615 0.000000 0.082500
1.000000 0.000000 0.082500
0.000000 0.011385 0.082500
0.201910 0.013054 0.082500
0.370822 0.016580 0.082500
0.499854 0.023331 0.082500
0.593796 0.030832 0.082500
0.663964 0.041090 0.082500
0.718742 0.052858 0.082500
0.759648 0.065327 0.082500
0.793334 0.079144 0.082500
0.820919 0.093294 0.082500
0.845166 0.107369 0.082500
0.866196 0.122210 0.082500
0.884705 0.137410 0.082500
0.901594 0.151545 0.082500
0.917271 0.163963 0.082500
0.932151 0.175125 0.082500
0.946453 0.184028 0.082500
0.960287 0.191685 0.082500
0.973495 0.197707 0.082500
0.986946 0.201910 0.082500
1.000000 0.203504 0.082500
0.000000 0.023258 0.082500
0.197707 0.026505 0.082500
0.364035 0.033008 0.082500
0.492234 0.046121 0.082500
0.585827 0.060717 0.082500
0.655140 0.080583 0.082500
0.708778 0.103424 0.082500
0.748766 0.127255 0.082500
0.781118 0.153601 0.082500
0.808004 0.179968 0.082500
0.831379 0.206732 0.082500
0.851806 0.233744 0.082500
0.869842 0.260941 0.082500
0.886746 0.285656 0.082500
0.902891 0.307222 0.082500
0.919056 0.326150 0.082500
0.934984 0.341466 0.082500
0.951060 0.354407 0.082500
0.966992 0.364035 0.082500
0.983420 0.370822 0.082500
1.000000 0.373526 0.082500
0.000000 0.035379 0.082500
0.191685 0.039713 0.082500
0.354407 0.048940 0.082500
0.480355 0.067816 0.082500
0.573175 0.088742 0.082500
0.640103 0.117072 0.082500
0.690744 0.149052 0.082500
0.728587 0.182073 0.082500
0.757753 0.218275 0.082500
0.783090 0.253201 0.082500
0.804298 0.289081 0.082500
0.823133 0.324183 0.082500
0.839826 0.359193 0.082500
0.856484 0.391081 0.082500
0.873581 0.419103 0.082500
0.892131 0.443589 0.082500
0.911513 0.463880 0.082500
0.932184 0.480355 0.082500
0.953879 0.492234 0.082500
0.976669 0.499854 0.082500
1.000000 0.502569 0.082500
0.000000 0.047706 0.082500
0.184028 0.053547 0.082500
0.341466 0.065016 0.082500
0.463880 0.088487 0.082500
0.555598 0.114900 0.082500
0.619612 0.150325 0.082500
0.667442 0.190075 0.082500
0.703401 0.230789 0.082500
0.730283 0.275271 0.082500
0.753447 0.317175 0.082500
0.772241 0.360528 0.082500
0.789451 0.401540 0.082500
0.804846 0.441594 0.082500
0.822117 0.476344 0.082500
0.840654 0.507115 0.082500
0.861836 0.533600 0.082500
0.885100 0.555598 0.082500
0.911258 0.573175 0.082500
0.939283 0.585827 0.082500
0.969168 0.593796 0.082500
1.000000 0.596382 0.082500
0.000000 0.060717 0.082500
0.175125 0.067849 0.082500
0.326150 0.080944 0.082500
0.443589 0.107869 0.082500
0.533600 0.138164 0.082500
0.594012 0.177737 0.082500
0.638684 0.221564 0.082500
0.672200 0.266269 0.082500
0.696801 0.313824 0.082500
0.717785 0.358793 0.082500
0.733469 0.404828 0.082500
0.748343 0.448616 0.082500
0.761667 0.490989 0.082500
0.778583 0.529417 0.082500
0.798390 0.563772 0.082500
0.822263 0.594012 0.082500
0.849675 0.619612 0.082500
0.882928 0.640103 0.082500
0.919417 0.655140 0.082500
0.958910 0.663964 0.082500
1.000000 0.667400 0.082500
0.000000 0.074928 0.082500
0.163963 0.082729 0.082500
0.307222 0.097109 0.082500
0.419103 0.126419 0.082500
0.507115 0.159346 0.082500
0.563772 0.201610 0.082500
0.605787 0.247788 0.082500
0.636967 0.295231 0.082500
0.659445 0.344867 0.082500
0.677836 0.392049 0.082500
0.690770 0.439535 0.082500
0.703199 0.484825 0.082500
0.714722 0.528486 0.082500
0.731448 0.568946 0.082500
0.752212 0.605787 0.082500
0.778436 0.638684 0.082500
0.809925 0.667442 0.082500
0.850948 0.690744 0.082500
0.896576 0.708778 0.082500
0.947142 0.718742 0.082500
1.000000 0.723159 0.082500
0.000000 0.090153 0.082500
0.151545 0.098406 0.082500
0.285656 0.113254 0.082500
0.391081 0.143516 0.082500
0.476344 0.177883 0.082500
0.529417 0.221417 0.082500
0.568946 0.268552 0.082500
0.597813 0.317297 0.082500
0.618261 0.367685 0.082500
0.633989 0.416075 0.082500
0.644509 0.464290 0.082500
0.655138 0.510570 0.082500
0.665651 0.555286 0.082500
0.682703 0.597813 0.082500
0.704769 0.636967 0.082500
0.733731 0.672200 0.082500
0.769211 0.703401 0.082500
0.817927 0.728587 0.082500
0.872745 0.748766 0.082500
0.934673 0.759648 0.082500
1.000000 0.765005 0.082500
0.000000 0.106700 0.082500
0.137410 0.115295 0.082500
0.260941 0.130158 0.082500
0.359193 0.160174 0.082500
0.441594 0.195154 0.082500
0.490989 0.238333 0.082500
0.528486 0.285278 0.082500
0.555286 0.334349 0.082500
0.574169 0.385221 0.082500
0.587321 0.433985 0.082500
0.595849 0.482269 0.082500
0.604998 0.529009 0.082500
0.614779 0.574169 0.082500
0.632315 0.618261 0.082500
0.655133 0.659445 0.082500
0.686176 0.696801 0.082500
0.724729 0.730283 0.082500
0.781725 0.757753 0.082500
0.846399 0.781118 0.082500
0.920856 0.793334 0.082500
1.000000 0.799368 0.082500
0.000000 0.125158 0.082500
0.122210 0.133804 0.082500
0.233744 0.148194 0.082500
0.324183 0.176867 0.082500
0.401540 0.210549 0.082500
0.448616 0.251657 0.082500
0.484825 0.296801 0.082500
0.510570 0.344862 0.082500
0.529009 0.395002 0.082500
0.540433 0.443718 0.082500
0.548177 0.492421 0.082500
0.556282 0.540433 0.082500
0.566015 0.587321 0.082500
0.583925 0.633989 0.082500
0.607951 0.677836 0.082500
0.641207 0.717785 0.082500
0.682825 0.753447 0.082500
0.746799 0.783090 0.082500
0.820032 0.808004 0.082500
0.906706 0.820919 0.082500
1.000000 0.828460 0.082500
0.000000 0.147403 0.082500
0.107369 0.154834 0.082500
0.206732 0.168621 0.082500
0.289081 0.195702 0.082500
0.360528 0.227759 0.082500
0.404828 0.266531 0.082500
0.439535 0.309230 0.082500
0.464290 0.355491 0.082500
0.482269 0.404151 0.082500
0.492421 0.451823 0.082500
0.500000 0.500000 0.082500
0.507579 0.548177 0.082500
0.517731 0.595849 0.082500
0.535710 0.644509 0.082500
0.560465 0.690770 0.082500
0.595172 0.733469 0.082500
0.639472 0.772241 0.082500
0.710919 0.804298 0.082500
0.793268 0.831379 0.082500
0.892631 0.845166 0.082500
1.000000 0.852597 0.082500
0.000000 0.171540 0.082500
0.093294 0.179081 0.082500
0.179968 0.191996 0.082500
0.253201 0.216910 0.082500
0.317175 0.246553 0.082500
0.358793 0.282215 0.082500
0.392049 0.322164 0.082500
0.416075 0.366011 0.082500
0.433985 0.412679 0.082500
0.443718 0.459567 0.082500
0.451823 0.507579 0.082500
0.459567 0.556282 0.082500
0.470991 0.604998 0.082500
0.489430 0.655138 0.082500
0.515175 0.703199 0.082500
0.551384 0.748343 0.082500
0.598460 0.789451 0.082500
0.675817 0.823133 0.082500
0.766256 0.851806 0.082500
0.877790 0.866196 0.082500
1.000000 0.874842 0.082500
0.000000 0.200632 0.082500
0.079144 0.206666 0.082500
0.153601 0.218882 0.082500
0.218275 0.242247 0.082500
0.275271 0.269717 0.082500
0.313824 0.303199 0.082500
0.344867 0.340555 0.082500
0.367685 0.381739 0.082500
0.385221 0.425831 0.082500
0.395002 0.470991 0.082500
0.404151 0.517731 0.082500
0.412679 0.566015 0.082500
0.425831 0.614779 0.082500
0.444714 0.665651 0.082500
0.471514 0.714722 0.082500
0.509011 0.761667 0.082500
0.558406 0.804846 0.082500
0.640807 0.839826 0.082500
0.739059 0.869842 0.082500
0.862590 0.884705 0.082500
1.000000 0.893300 0.082500
0.000000 0.234995 0.082500
0.065327 0.240352 0.082500
0.127255 0.251234 0.082500
0.182073 0.271413 0.082500
0.230789 0.296599 0.082500
0.266269 0.327800 0.082500
0.295231 0.363033 0.082500
0.317297 0.402187 0.082500
0.334349 0.444714 0.082500
0.344862 0.489430 0.082500
0.355491 0.535710 0.082500
0.366011 0.583925 0.082500
0.381739 0.632315 0.082500
0.402187 0.682703 0.082500
0.431054 0.731448 0.082500
0.470583 0.778583 0.082500
0.523656 0.822117 0.082500
0.608919 0.856484 0.082500
0.714344 0.886746 0.082500
0.848455 0.901594 0.082500
1.000000 0.909847 0.082500
0.000000 0.276841 0.082500
0.052858 0.281258 0.082500
0.103424 0.291222 0.082500
0.149052 0.309256 0.082500