# vtk DataFile Version 2.0
Mesh for Fierro
ASCII 
DATASET UNSTRUCTURED_GRID

POINTS 2205 float
0.000000 0.000000 0.000000
0.364244 0.000000 0.000000
0.587062 0.000000 0.000000
0.700246 0.000000 0.000000
0.771142 0.000000 0.000000
0.814943 0.000000 0.000000
0.848618 0.000000 0.000000
0.873424 0.000000 0.000000
0.892848 0.000000 0.000000
0.908122 0.000000 0.000000
0.921341 0.000000 0.000000
0.932897 0.000000 0.000000
0.942867 0.000000 0.000000
0.951700 0.000000 0.000000
0.959475 0.000000 0.000000
0.966933 0.000000 0.000000
0.973885 0.000000 0.000000
0.980632 0.000000 0.000000
0.987164 0.000000 0.000000
0.993673 0.000000 0.000000
1.000000 0.000000 0.000000
0.000000 0.006327 0.000000
0.361708 0.008117 0.000000
0.583819 0.016273 0.000000
0.696650 0.027612 0.000000
0.765976 0.046415 0.000000
0.811299 0.065617 0.000000
0.845386 0.087332 0.000000
0.869057 0.114046 0.000000
0.887623 0.142491 0.000000
0.902067 0.170654 0.000000
0.914396 0.197800 0.000000
0.925325 0.225224 0.000000
0.934805 0.253002 0.000000
0.943525 0.277831 0.000000
0.951681 0.299136 0.000000
0.959754 0.317951 0.000000
0.967732 0.332728 0.000000
0.975748 0.344997 0.000000
0.983746 0.354806 0.000000
0.991883 0.361708 0.000000
1.000000 0.364244 0.000000
0.000000 0.012836 0.000000
0.354806 0.016254 0.000000
0.575848 0.031781 0.000000
0.689358 0.053924 0.000000
0.757699 0.089554 0.000000
0.803817 0.125072 0.000000
0.835738 0.169291 0.000000
0.856546 0.217055 0.000000
0.871347 0.266670 0.000000
0.883016 0.312918 0.000000
0.892109 0.357247 0.000000
0.899688 0.399601 0.000000
0.905944 0.439833 0.000000
0.912684 0.474386 0.000000
0.920468 0.503532 0.000000
0.929950 0.528478 0.000000
0.941152 0.548041 0.000000
0.954020 0.564026 0.000000
0.968219 0.575848 0.000000
0.983727 0.583819 0.000000
1.000000 0.587062 0.000000
0.000000 0.019368 0.000000
0.344997 0.024252 0.000000
0.564026 0.045980 0.000000
0.676612 0.077523 0.000000
0.741292 0.125006 0.000000
0.786622 0.172483 0.000000
0.813146 0.231512 0.000000
0.830021 0.290043 0.000000
0.838904 0.351272 0.000000
0.845744 0.404128 0.000000
0.849650 0.455180 0.000000
0.852801 0.501751 0.000000
0.855580 0.544835 0.000000
0.861612 0.581715 0.000000
0.870937 0.612954 0.000000
0.884183 0.639320 0.000000
0.900965 0.660548 0.000000
0.922477 0.676612 0.000000
0.946076 0.689358 0.000000
0.972388 0.696650 0.000000
1.000000 0.700246 0.000000
0.000000 0.026115 0.000000
0.332728 0.032268 0.000000
0.548041 0.058848 0.000000
0.660548 0.099035 0.000000
0.723780 0.156829 0.000000
0.766719 0.214942 0.000000
0.785987 0.285745 0.000000
0.798135 0.350022 0.000000
0.799018 0.417455 0.000000
0.801057 0.472276 0.000000
0.798296 0.525139 0.000000
0.796431 0.570903 0.000000
0.794751 0.611362 0.000000
0.798823 0.645333 0.000000
0.807483 0.675013 0.000000
0.822483 0.700886 0.000000
0.843171 0.723780 0.000000
0.874994 0.741292 0.000000
0.910446 0.757699 0.000000
0.953585 0.765976 0.000000
1.000000 0.771142 0.000000
0.000000 0.033067 0.000000
0.317951 0.040246 0.000000
0.528478 0.070050 0.000000
0.639320 0.115817 0.000000
0.700886 0.177517 0.000000
0.740896 0.241796 0.000000
0.754068 0.313110 0.000000
0.762096 0.379221 0.000000
0.757041 0.444149 0.000000
0.754111 0.499183 0.000000
0.745678 0.550432 0.000000
0.737674 0.596167 0.000000
0.730376 0.637728 0.000000
0.731168 0.676071 0.000000
0.739970 0.710462 0.000000
0.758204 0.740896 0.000000
0.785058 0.766719 0.000000
0.827517 0.786622 0.000000
0.874928 0.803817 0.000000
0.934383 0.811299 0.000000
1.000000 0.814943 0.000000
0.000000 0.040525 0.000000
0.299136 0.048319 0.000000
0.503532 0.079532 0.000000
0.612954 0.129063 0.000000
0.675013 0.192517 0.000000
0.710462 0.260030 0.000000
0.719624 0.330320 0.000000
0.722988 0.396641 0.000000
0.713023 0.458849 0.000000
0.705143 0.512698 0.000000
0.691043 0.561360 0.000000
0.678278 0.604943 0.000000
0.666526 0.644690 0.000000
0.664003 0.683211 0.000000
0.669680 0.719624 0.000000
0.686890 0.754068 0.000000
0.714255 0.785987 0.000000
0.768488 0.813146 0.000000
0.830709 0.835738 0.000000
0.912668 0.845386 0.000000
1.000000 0.848618 0.000000
0.000000 0.048300 0.000000
0.277831 0.056475 0.000000
0.474386 0.087316 0.000000
0.581715 0.138388 0.000000
0.645333 0.201177 0.000000
0.676071 0.268832 0.000000
0.683211 0.335997 0.000000
0.682411 0.400634 0.000000
0.669438 0.459378 0.000000
0.656722 0.511288 0.000000
0.638180 0.557349 0.000000
0.620862 0.600117 0.000000
0.604820 0.640476 0.000000
0.599366 0.682411 0.000000
0.603359 0.722988 0.000000
0.620779 0.762096 0.000000
0.649978 0.798135 0.000000
0.709957 0.830021 0.000000
0.782945 0.856546 0.000000
0.885954 0.869057 0.000000
1.000000 0.873424 0.000000
0.000000 0.057133 0.000000
0.253002 0.065195 0.000000
0.439833 0.094056 0.000000
0.544835 0.144420 0.000000
0.611362 0.205249 0.000000
0.637728 0.269624 0.000000
0.644690 0.333474 0.000000
0.640476 0.395180 0.000000
0.625654 0.451334 0.000000
0.608623 0.500805 0.000000
0.586649 0.544365 0.000000
0.566815 0.585766 0.000000
0.548666 0.625654 0.000000
0.540622 0.669438 0.000000
0.541151 0.713023 0.000000
0.555851 0.757041 0.000000
0.582545 0.799018 0.000000
0.648728 0.838904 0.000000
0.733330 0.871347 0.000000
0.857509 0.887623 0.000000
1.000000 0.892848 0.000000
0.000000 0.067103 0.000000
0.225224 0.074675 0.000000
0.399601 0.100312 0.000000
0.501751 0.147199 0.000000
0.570903 0.203569 0.000000
0.596167 0.262326 0.000000
0.604943 0.321722 0.000000
0.600117 0.379138 0.000000
0.585766 0.433185 0.000000
0.566090 0.480533 0.000000
0.542268 0.523653 0.000000
0.519467 0.566090 0.000000
0.499195 0.608623 0.000000
0.488712 0.656722 0.000000
0.487302 0.705143 0.000000
0.500817 0.754111 0.000000
0.527724 0.801057 0.000000
0.595872 0.845744 0.000000
0.687082 0.883016 0.000000
0.829346 0.902067 0.000000
1.000000 0.908122 0.000000
0.000000 0.078659 0.000000
0.197800 0.085604 0.000000
0.357247 0.107891 0.000000
0.455180 0.150350 0.000000
0.525139 0.201704 0.000000
0.550432 0.254322 0.000000
0.561360 0.308957 0.000000
0.557349 0.361820 0.000000
0.544365 0.413351 0.000000
0.523653 0.457732 0.000000
0.500000 0.500000 0.000000
0.476347 0.542268 0.000000
0.455635 0.586649 0.000000
0.442651 0.638180 0.000000
0.438640 0.691043 0.000000
0.449568 0.745678 0.000000
0.474861 0.798296 0.000000
0.544820 0.849650 0.000000
0.642753 0.892109 0.000000
0.802200 0.914396 0.000000
1.000000 0.921341 0.000000
0.000000 0.091878 0.000000
0.170654 0.097933 0.000000
0.312918 0.116984 0.000000
0.404128 0.154256 0.000000
0.472276 0.198943 0.000000
0.499183 0.245889 0.000000
0.512698 0.294857 0.000000
0.511288 0.343278 0.000000
0.500805 0.391377 0.000000
0.480533 0.433910 0.000000
0.457732 0.476347 0.000000
0.433910 0.519467 0.000000
0.414234 0.566815 0.000000
0.399883 0.620862 0.000000
0.395057 0.678278 0.000000
0.403833 0.737674 0.000000
0.429097 0.796431 0.000000
0.498249 0.852801 0.000000
0.600399 0.899688 0.000000
0.774776 0.925325 0.000000
1.000000 0.932897 0.000000
0.000000 0.107152 0.000000
0.142491 0.112377 0.000000
0.266670 0.128653 0.000000
0.351272 0.161096 0.000000
0.417455 0.200982 0.000000
0.444149 0.242959 0.000000
0.458849 0.286977 0.000000
0.459378 0.330562 0.000000
0.451334 0.374346 0.000000
0.433185 0.414234 0.000000
0.413351 0.455635 0.000000
0.391377 0.499195 0.000000
0.374346 0.548666 0.000000
0.359524 0.604820 0.000000
0.355310 0.666526 0.000000
0.362272 0.730376 0.000000
0.388638 0.794751 0.000000
0.455165 0.855580 0.000000
0.560167 0.905944 0.000000
0.746998 0.934805 0.000000
1.000000 0.942867 0.000000
0.000000 0.126576 0.000000
0.114046 0.130943 0.000000
0.217055 0.143454 0.000000
0.290043 0.169979 0.000000
0.350022 0.201865 0.000000
0.379221 0.237904 0.000000
0.396641 0.277012 0.000000
0.400634 0.317589 0.000000
0.395180 0.359524 0.000000
0.379138 0.399883 0.000000
0.361820 0.442651 0.000000
0.343278 0.488712 0.000000
0.330562 0.540622 0.000000
0.317589 0.599366 0.000000
0.316789 0.664003 0.000000
0.323929 0.731168 0.000000
0.354667 0.798823 0.000000
0.418285 0.861612 0.000000
0.525614 0.912684 0.000000
0.722169 0.943525 0.000000
1.000000 0.951700 0.000000
0.000000 0.151382 0.000000
0.087332 0.154614 0.000000
0.169291 0.164262 0.000000
0.231512 0.186854 0.000000
0.285745 0.214013 0.000000
0.313110 0.245932 0.000000
0.330320 0.280376 0.000000
0.335997 0.316789 0.000000
0.333474 0.355310 0.000000
0.321722 0.395057 0.000000
0.308957 0.438640 0.000000
0.294857 0.487302 0.000000
0.286977 0.541151 0.000000
0.277012 0.603359 0.000000
0.280376 0.669680 0.000000
0.289538 0.739970 0.000000
0.324987 0.807483 0.000000
0.387046 0.870937 0.000000
0.496468 0.920468 0.000000
0.700864 0.951681 0.000000
1.000000 0.959475 0.000000
0.000000 0.185057 0.000000
0.065617 0.188701 0.000000
0.125072 0.196183 0.000000
0.172483 0.213378 0.000000
0.214942 0.233281 0.000000
0.241796 0.259104 0.000000
0.260030 0.289538 0.000000
0.268832 0.323929 0.000000
0.269624 0.362272 0.000000
0.262326 0.403833 0.000000
0.254322 0.449568 0.000000
0.245889 0.500817 0.000000
0.242959 0.555851 0.000000
0.237904 0.620779 0.000000
0.245932 0.686890 0.000000
0.259104 0.758204 0.000000
0.299114 0.822483 0.000000
0.360680 0.884183 0.000000
0.471522 0.929950 0.000000
0.682049 0.959754 0.000000
1.000000 0.966933 0.000000
0.000000 0.228858 0.000000
0.046415 0.234024 0.000000
0.089554 0.242301 0.000000
0.125006 0.258708 0.000000
0.156829 0.276220 0.000000
0.177517 0.299114 0.000000
0.192517 0.324987 0.000000
0.201177 0.354667 0.000000
0.205249 0.388638 0.000000
0.203569 0.429097 0.000000
0.201704 0.474861 0.000000
0.198943 0.527724 0.000000
0.200982 0.582545 0.000000
0.201865 0.649978 0.000000
0.214013 0.714255 0.000000
0.233281 0.785058 0.000000
0.276220 0.843171 0.000000
0.339452 0.900965 0.000000
0.451959 0.941152 0.000000
0.667272 0.967732 0.000000
1.000000 0.973885 0.000000
0.000000 0.299754 0.000000
0.027612 0.303350 0.000000
0.053924 0.310642 0.000000
0.077523 0.323388 0.000000
0.099035 0.339452 0.000000
0.115817 0.360680 0.000000
0.129063 0.387046 0.000000
0.138388 0.418285 0.000000
0.144420 0.455165 0.000000
[...]
POINT_DATA 2205 
VECTORS pos float 
0.000000 0.000000 0.000000
0.364244 0.000000 0.000000
0.587062 0.000000 0.000000
0.700246 0.000000 0.000000
0.771142 0.000000 0.000000
0.814943 0.000000 0.000000
0.848618 0.000000 0.000000
0.873424 0.000000 0.000000
0.892848 0.000000 0.000000
0.908122 0.000000 0.000000
0.921341 0.000000 0.000000
0.932897 0.000000 0.000000
0.942867 0.000000 0.000000
0.951700 0.000000 0.000000
0.959475 0.000000 0.000000
0.966933 0.000000 0.000000
0.973885 0.000000 0.000000
0.980632 0.000000 0.000000
0.987164 0.000000 0.000000
0.993673 0.000000 0.000000
1.000000 0.000000 0.000000
0.000000 0.006327 0.000000
0.361708 0.008117 0.000000
0.583819 0.016273 0.000000
0.696650 0.027612 0.000000
0.765976 0.046415 0.000000
0.811299 0.065617 0.000000
0.845386 0.087332 0.000000
0.869057 0.114046 0.000000
0.887623 0.142491 0.000000
0.902067 0.170654 0.000000
0.914396 0.197800 0.000000
0.925325 0.225224 0.000000
0.934805 0.253002 0.000000
0.943525 0.277831 0.000000
0.951681 0.299136 0.000000
0.959754 0.317951 0.000000
0.967732 0.332728 0.000000
0.975748 0.344997 0.000000
0.983746 0.354806 0.000000
0.991883 0.361708 0.000000
1.000000 0.364244 0.000000
0.000000 0.012836 0.000000
0.354806 0.016254 0.000000
0.575848 0.031781 0.000000
0.689358 0.053924 0.000000
0.757699 0.089554 0.000000
0.803817 0.125072 0.000000
0.835738 0.169291 0.000000
0.856546 0.217055 0.000000
0.871347 0.266670 0.000000
0.883016 0.312918 0.000000
0.892109 0.357247 0.000000
0.899688 0.399601 0.000000
0.905944 0.439833 0.000000
0.912684 0.474386 0.000000
0.920468 0.503532 0.000000
0.929950 0.528478 0.000000
0.941152 0.548041 0.000000
0.954020 0.564026 0.000000
0.968219 0.575848 0.000000
0.983727 0.583819 0.000000
1.000000 0.587062 0.000000
0.000000 0.019368 0.000000
0.344997 0.024252 0.000000
0.564026 0.045980 0.000000
0.676612 0.077523 0.000000
0.741292 0.125006 0.000000
0.786622 0.172483 0.000000
0.813146 0.231512 0.000000
0.830021 0.290043 0.000000
0.838904 0.351272 0.000000
0.845744 0.404128 0.000000
0.849650 0.455180 0.000000
0.852801 0.501751 0.000000
0.855580 0.544835 0.000000
0.861612 0.581715 0.000000
0.870937 0.612954 0.000000
0.884183 0.639320 0.000000
0.900965 0.660548 0.000000
0.922477 0.676612 0.000000
0.946076 0.689358 0.000000
0.972388 0.696650 0.000000
1.000000 0.700246 0.000000
0.000000 0.026115 0.000000
0.332728 0.032268 0.000000
0.548041 0.058848 0.000000
0.660548 0.099035 0.000000
0.723780 0.156829 0.000000
0.766719 0.214942 0.000000
0.785987 0.285745 0.000000
0.798135 0.350022 0.000000
0.799018 0.417455 0.000000
0.801057 0.472276 0.000000
0.798296 0.525139 0.000000
0.796431 0.570903 0.000000
0.794751 0.611362 0.000000
0.798823 0.645333 0.000000
0.807483 0.675013 0.000000
0.822483 0.700886 0.000000
0.843171 0.723780 0.000000
0.874994 0.741292 0.000000
0.910446 0.757699 0.000000
0.953585 0.765976 0.000000
1.000000 0.771142 0.000000
0.000000 0.033067 0.000000
0.317951 0.040246 0.000000
0.528478 0.070050 0.000000
0.639320 0.115817 0.000000
0.700886 0.177517 0.000000
0.740896 0.241796 0.000000
0.754068 0.313110 0.000000
0.762096 0.379221 0.000000
0.757041 0.444149 0.000000
0.754111 0.499183 0.000000
0.745678 0.550432 0.000000
0.737674 0.596167 0.000000
0.730376 0.637728 0.000000
0.731168 0.676071 0.000000
0.739970 0.710462 0.000000
0.758204 0.740896 0.000000
0.785058 0.766719 0.000000
0.827517 0.786622 0.000000
0.874928 0.803817 0.000000
0.934383 0.811299 0.000000
1.000000 0.814943 0.000000
0.000000 0.040525 0.000000
0.299136 0.048319 0.000000
0.503532 0.079532 0.000000
0.612954 0.129063 0.000000
0.675013 0.192517 0.000000
0.710462 0.260030 0.000000
0.719624 0.330320 0.000000
0.722988 0.396641 0.000000
0.713023 0.458849 0.000000
0.705143 0.512698 0.000000
0.691043 0.561360 0.000000
0.678278 0.604943 0.000000
0.666526 0.644690 0.000000
0.664003 0.683211 0.000000
0.669680 0.719624 0.000000
0.686890 0.754068 0.000000
0.714255 0.785987 0.000000
0.768488 0.813146 0.000000
0.830709 0.835738 0.000000
0.912668 0.845386 0.000000
1.000000 0.848618 0.000000
0.000000 0.048300 0.000000
0.277831 0.056475 0.000000
0.474386 0.087316 0.000000
0.581715 0.138388 0.000000
0.645333 0.201177 0.000000
0.676071 0.268832 0.000000
0.683211 0.335997 0.000000
0.682411 0.400634 0.000000
0.669438 0.459378 0.000000
0.656722 0.511288 0.000000
0.638180 0.557349 0.000000
0.620862 0.600117 0.000000
0.604820 0.640476 0.000000
0.599366 0.682411 0.000000
0.603359 0.722988 0.000000
0.620779 0.762096 0.000000
0.649978 0.798135 0.000000
0.709957 0.830021 0.000000
0.782945 0.856546 0.000000
0.885954 0.869057 0.000000
1.000000 0.873424 0.000000
0.000000 0.057133 0.000000
0.253002 0.065195 0.000000
0.439833 0.094056 0.000000
0.544835 0.144420 0.000000
0.611362 0.205249 0.000000
0.637728 0.269624 0.000000
0.644690 0.333474 0.000000
0.640476 0.395180 0.000000
0.625654 0.451334 0.000000
0.608623 0.500805 0.000000
0.586649 0.544365 0.000000
0.566815 0.585766 0.000000
0.548666 0.625654 0.000000
0.540622 0.669438 0.000000
0.541151 0.713023 0.000000
0.555851 0.757041 0.000000
0.582545 0.799018 0.000000
0.648728 0.838904 0.000000
0.733330 0.871347 0.000000
0.857509 0.887623 0.000000
1.000000 0.892848 0.000000
0.000000 0.067103 0.000000
0.225224 0.074675 0.000000
0.399601 0.100312 0.000000
0.501751 0.147199 0.000000
0.570903 0.203569 0.000000
0.596167 0.262326 0.000000
0.604943 0.321722 0.000000
0.600117 0.379138 0.000000
0.585766 0.433185 0.000000
0.566090 0.480533 0.000000
0.542268 0.523653 0.000000
0.519467 0.566090 0.000000
0.499195 0.608623 0.000000
0.488712 0.656722 0.000000
0.487302 0.705143 0.000000
0.500817 0.754111 0.000000
0.527724 0.801057 0.000000
0.595872 0.845744 0.000000
0.687082 0.883016 0.000000
0.829346 0.902067 0.000000
1.000000 0.908122 0.000000
0.000000 0.078659 0.000000
0.197800 0.085604 0.000000
0.357247 0.107891 0.000000
0.455180 0.150350 0.000000
0.525139 0.201704 0.000000
0.550432 0.254322 0.000000
0.561360 0.308957 0.000000
0.557349 0.361820 0.000000
0.544365 0.413351 0.000000
0.523653 0.457732 0.000000
0.500000 0.500000 0.000000
0.476347 0.542268 0.000000
0.455635 0.586649 0.000000
0.442651 0.638180 0.000000
0.438640 0.691043 0.000000
0.449568 0.745678 0.000000
0.474861 0.798296 0.000000
0.544820 0.849650 0.000000
0.642753 0.892109 0.000000
0.802200 0.914396 0.000000
1.000000 0.921341 0.000000
0.000000 0.091878 0.000000
0.170654 0.097933 0.000000
0.312918 0.116984 0.000000
0.404128 0.154256 0.000000
0.472276 0.198943 0.000000
0.499183 0.245889 0.000000
0.512698 0.294857 0.000000
0.511288 0.343278 0.000000
0.500805 0.391377 0.000000
0.480533 0.433910 0.000000
0.457732 0.476347 0.000000
0.433910 0.519467 0.000000
0.414234 0.566815 0.000000
0.399883 0.620862 0.000000
0.395057 0.678278 0.000000
0.403833 0.737674 0.000000
0.429097 0.796431 0.000000
0.498249 0.852801 0.000000
0.600399 0.899688 0.000000
0.774776 0.925325 0.000000
1.000000 0.932897 0.000000
0.000000 0.107152 0.000000
0.142491 0.112377 0.000000
0.266670 0.128653 0.000000
0.351272 0.161096 0.000000
0.417455 0.200982 0.000000
0.444149 0.242959 0.000000
0.458849 0.286977 0.000000
0.459378 0.330562 0.000000
0.451334 0.374346 0.000000
0.433185 0.414234 0.000000
0.413351 0.455635 0.000000
0.391377 0.499195 0.000000
0.374346 0.548666 0.000000
0.359524 0.604820 0.000000
0.355310 0.666526 0.000000
0.362272 0.730376 0.000000
0.388638 0.794751 0.000000
0.455165 0.855580 0.000000
0.560167 0.905944 0.000000
0.746998 0.934805 0.000000
1.000000 0.942867 0.000000
0.000000 0.126576 0.000000
0.114046 0.130943 0.000000
0.217055 0.143454 0.000000
0.290043 0.169979 0.000000
0.350022 0.201865 0.000000
0.379221 0.237904 0.000000
0.396641 0.277012 0.000000
0.400634 0.317589 0.000000
0.395180 0.359524 0.000000
0.379138 0.399883 0.000000
0.361820 0.442651 0.000000
0.343278 0.488712 0.000000
0.330562 0.540622 0.000000
0.317589 0.599366 0.000000
0.316789 0.664003 0.000000
0.323929 0.731168 0.000000
0.354667 0.798823 0.000000
0.418285 0.861612 0.000000
0.525614 0.912684 0.000000
0.722169 0.943525 0.000000
1.000000 0.951700 0.000000
0.000000 0.151382 0.000000
0.087332 0.154614 0.000000
0.169291 0.164262 0.000000
0.231512 0.186854 0.000000
0.285745 0.214013 0.000000
0.313110 0.245932 0.000000
0.330320 0.280376 0.000000
0.335997 0.316789 0.000000
0.333474 0.355310 0.000000
0.321722 0.395057 0.000000
0.308957 0.438640 0.000000
0.294857 0.487302 0.000000
0.286977 0.541151 0.000000
0.277012 0.603359 0.000000
0.280376 0.669680 0.000000
0.289538 0.739970 0.000000
0.324987 0.807483 0.000000
0.387046 0.870937 0.000000
0.496468 0.920468 0.000000
0.700864 0.951681 0.000000
1.000000 0.959475 0.000000
0.000000 0.185057 0.000000
0.065617 0.188701 0.000000
0.125072 0.196183 0.000000
0.172483 0.213378 0.000000
0.214942 0.233281 0.000000
0.241796 0.259104 0.000000
0.260030 0.289538 0.000000
0.268832 0.323929 0.000000
0.269624 0.362272 0.000000
0.262326 0.403833 0.000000
0.254322 0.449568 0.000000
0.245889 0.500817 0.000000
0.242959 0.555851 0.000000
0.237904 0.620779 0.000000
0.245932 0.686890 0.000000
0.259104 0.758204 0.000000
0.299114 0.822483 0.000000
0.360680 0.884183 0.000000
0.471522 0.929950 0.000000
0.682049 0.959754 0.000000
1.000000 0.966933 0.000000
0.000000 0.228858 0.000000
0.046415 0.234024 0.000000
0.089554 0.242301 0.000000
0.125006 0.258708 0.000000
0.156829 0.276220 0.000000
0.177517 0.299114 0.000000
0.192517 0.324987 0.000000
0.201177 0.354667 0.000000
0.205249 0.388638 0.000000
0.203569 0.429097 0.000000
0.201704 0.474861 0.000000
0.198943 0.527724 0.000000
0.200982 0.582545 0.000000
0.201865 0.649978 0.000000
0.214013 0.714255 0.000000
0.233281 0.785058 0.000000
0.276220 0.843171 0.000000
0.339452 0.900965 0.000000
0.451959 0.941152 0.000000
0.667272 0.967732 0.000000
1.000000 0.973885 0.000000
0.000000 0.299754 0.000000
0.027612 0.303350 0.000000
0.053924 0.310642 0.000000
0.077523 0.323388 0.000000
0.099035 0.339452 0.000000
0.115817 0.360680 0.000000
0.129063 0.387046 0.000000
0.138388 0.418285 0.000000
0.144420 0.455165 0.000000
0.147199 0.498249 0.000000
0.150350 0.544820 0.000000
0.154256 0.595872 0.000000
0.161096 0.648728 0.000000
0.169979 0.709957 0.000000
0.186854 0.768488 0.000000
0.213378 0.827517 0.000000
0.258708 0.874994 0.000000
0.323388 0.922477 0.000000
0.435974 0.954020 0.000000
0.655003 0.975748 0.000000
1.000000 0.980632 0.000000
0.000000 0.412938 0.000000
0.016273 0.416181 0.000000
0.031781 0.424152 0.000000
0.045980 0.435974 0.000000
0.058848 0.451959 0.000000
0.070050 0.471522 0.000000
0.079532 0.496468 0.000000
0.087316 0.525614 0.000000
0.094056 0.560167 0.000000
0.100312 0.600399 0.000000
0.107891 0.642753 0.000000
0.116984 0.687082 0.000000
0.128653 0.733330 0.000000
0.143454 0.782945 0.000000
0.164262 0.830709 0.000000
0.196183 0.874928 0.000000
0.242301 0.910446 0.000000
0.310642 0.946076 0.000000
0.424152 0.968219 0.000000
0.645194 0.983746 0.000000
1.000000 0.987164 0.000000
0.000000 0.635756 0.000000
0.008117 0.638292 0.000000
0.016254 0.645194 0.000000
0.024252 0.655003 0.000000
0.032268 0.667272 0.000000
0.040246 0.682049 0.000000
0.048319 0.700864 0.000000
0.056475 0.722169 0.000000
0.065195 0.746998 0.000000
0.074675 0.774776 0.000000
0.085604 0.802200 0.000000
0.097933 0.829346 0.000000
0.112377 0.857509 0.000000
0.130943 0.885954 0.000000
0.154614 0.912668 0.000000
0.188701 0.934383 0.000000
0.234024 0.953585 0.000000
0.303350 0.972388 0.000000
0.416181 0.983727 0.000000
0.638292 0.991883 0.000000
1.000000 0.993673 0.000000
0.000000 1.000000 0.000000
0.006327 1.000000 0.000000
0.012836 1.000000 0.000000
0.019368 1.000000 0.000000
0.026115 1.000000 0.000000
0.033067 1.000000 0.000000
0.040525 1.000000 0.000000
0.048300 1.000000 0.000000
0.057133 1.000000 0.000000
0.067103 1.000000 0.000000
0.078659 1.000000 0.000000
0.091878 1.000000 0.000000
0.107152 1.000000 0.000000
0.126576 1.000000 0.000000
0.151382 1.000000 0.000000
0.185057 1.000000 0.000000
0.228858 1.000000 0.000000
0.299754 1.000000 0.000000
0.412938 1.000000 0.000000
0.635756 1.000000 0.000000
1.000000 1.000000 0.000000
0.000000 0.000000 0.082500
0.364244 0.000000 0.082500
0.587062 0.000000 0.082500
0.700246 0.000000 0.082500
0.771142 0.000000 0.082500
0.814943 0.000000 0.082500
0.848618 0.000000 0.082500
0.873424 0.000000 0.082500
0.892848 0.000000 0.082500
0.908122 0.000000 0.082500
0.921341 0.000000 0.082500
0.932897 0.000000 0.082500
0.942867 0.000000 0.082500
0.951700 0.000000 0.082500
0.959475 0.000000 0.082500
0.966933 0.000000 0.082500
0.973885 0.000000 0.082500
0.980632 0.000000 0.082500
0.987164 0.000000 0.082500
0.993673 0.000000 0.082500
1.000000 0.000000 0.082500
0.000000 0.006327 0.082500
0.361708 0.008117 0.082500
0.583819 0.016273 0.082500
0.696650 0.027612 0.082500
0.765976 0.046415 0.082500
0.811299 0.065617 0.082500
0.845386 0.087332 0.082500
0.869057 0.114046 0.082500
0.887623 0.142491 0.082500
0.902067 0.170654 0.082500
0.914396 0.197800 0.082500
0.925325 0.225224 0.082500
0.934805 0.253002 0.082500
0.943525 0.277831 0.082500
0.951681 0.299136 0.082500
0.959754 0.317951 0.082500
0.967732 0.332728 0.082500
0.975748 0.344997 0.082500
0.983746 0.354806 0.082500
0.991883 0.361708 0.082500
1.000000 0.364244 0.082500
0.000000 0.012836 0.082500
0.354806 0.016254 0.082500
0.575848 0.031781 0.082500
0.689358 0.053924 0.082500
0.757699 0.089554 0.082500
0.803817 0.125072 0.082500
0.835738 0.169291 0.082500
0.856546 0.217055 0.082500
0.871347 0.266670 0.082500
0.883016 0.312918 0.082500
0.892109 0.357247 0.082500
0.899688 0.399601 0.082500
0.905944 0.439833 0.082500
0.912684 0.474386 0.082500
0.920468 0.503532 0.082500
0.929950 0.528478 0.082500
0.941152 0.548041 0.082500
0.954020 0.564026 0.082500
0.968219 0.575848 0.082500
0.983727 0.583819 0.082500
1.000000 0.587062 0.082500
0.000000 0.019368 0.082500
0.344997 0.024252 0.082500
0.564026 0.045980 0.082500
0.676612 0.077523 0.082500
0.741292 0.125006 0.082500
0.786622 0.172483 0.082500
0.813146 0.231512 0.082500
0.830021 0.290043 0.082500
0.838904 0.351272 0.082500
0.845744 0.404128 0.082500
0.849650 0.455180 0.082500
0.852801 0.501751 0.082500
0.855580 0.544835 0.082500
0.861612 0.581715 0.082500
0.870937 0.612954 0.082500
0.884183 0.639320 0.082500
0.900965 0.660548 0.082500
0.922477 0.676612 0.082500
0.946076 0.689358 0.082500
0.972388 0.696650 0.082500
1.000000 0.700246 0.082500
0.000000 0.026115 0.082500
0.332728 0.032268 0.082500
0.548041 0.058848 0.082500
0.660548 0.099035 0.082500
0.723780 0.156829 0.082500
0.766719 0.214942 0.082500
0.785987 0.285745 0.082500
0.798135 0.350022 0.082500
0.799018 0.417455 0.082500
0.801057 0.472276 0.082500
0.798296 0.525139 0.082500
0.796431 0.570903 0.082500
0.794751 0.611362 0.082500
0.798823 0.645333 0.082500
0.807483 0.675013 0.082500
0.822483 0.700886 0.082500
0.843171 0.723780 0.082500
0.874994 0.741292 0.082500
0.910446 0.757699 0.082500
0.953585 0.765976 0.082500
1.000000 0.771142 0.082500
0.000000 0.033067 0.082500
0.317951 0.040246 0.082500
0.528478 0.070050 0.082500
0.639320 0.115817 0.082500
0.700886 0.177517 0.082500
0.740896 0.241796 0.082500
0.754068 0.313110 0.082500
0.762096 0.379221 0.082500
0.757041 0.444149 0.082500
0.754111 0.499183 0.082500
0.745678 0.550432 0.082500
0.737674 0.596167 0.082500
0.730376 0.637728 0.082500
0.731168 0.676071 0.082500
0.739970 0.710462 0.082500
0.758204 0.740896 0.082500
0.785058 0.766719 0.082500
0.827517 0.786622 0.082500
0.874928 0.803817 0.082500
0.934383 0.811299 0.082500
1.000000 0.814943 0.082500
0.000000 0.040525 0.082500
0.299136 0.048319 0.082500
0.503532 0.079532 0.082500
0.612954 0.129063 0.082500
0.675013 0.192517 0.082500
0.710462 0.260030 0.082500
0.719624 0.330320 0.082500
0.722988 0.396641 0.082500
0.713023 0.458849 0.082500
0.705143 0.512698 0.082500
0.691043 0.561360 0.082500
0.678278 0.604943 0.082500
0.666526 0.644690 0.082500
0.664003 0.683211 0.082500
0.669680 0.719624 0.082500
0.686890 0.754068 0.082500
0.714255 0.785987 0.082500
0.768488 0.813146 0.082500
0.830709 0.835738 0.082500
0.912668 0.845386 0.082500
1.000000 0.848618 0.082500
0.000000 0.048300 0.082500
0.277831 0.056475 0.082500
0.474386 0.087316 0.082500
0.581715 0.138388 0.082500
0.645333 0.201177 0.082500
0.676071 0.268832 0.082500
0.683211 0.335997 0.082500
0.682411 0.400634 0.082500
0.669438 0.459378 0.082500
0.656722 0.511288 0.082500
0.638180 0.557349 0.082500
0.620862 0.600117 0.082500
0.604820 0.640476 0.082500
0.599366 0.682411 0.082500
0.603359 0.722988 0.082500
0.620779 0.762096 0.082500
0.649978 0.798135 0.082500
0.709957 0.830021 0.082500
0.782945 0.856546 0.082500
0.885954 0.869057 0.082500
1.000000 0.873424 0.082500
0.000000 0.057133 0.082500
0.253002 0.065195 0.082500
0.439833 0.094056 0.082500
0.544835 0.144420 0.082500
0.611362 0.205249 0.082500
0.637728 0.269624 0.082500
0.644690 0.333474 0.082500
0.640476 0.395180 0.082500
0.625654 0.451334 0.082500
0.608623 0.500805 0.082500
0.586649 0.544365 0.082500
0.566815 0.585766 0.082500
0.548666 0.625654 0.082500
0.540622 0.669438 0.082500
0.541151 0.713023 0.082500
0.555851 0.757041 0.082500
0.582545 0.799018 0.082500
0.648728 0.838904 0.082500
0.733330 0.871347 0.082500
0.857509 0.887623 0.082500
1.000000 0.892848 0.082500
0.000000 0.067103 0.082500
0.225224 0.074675 0.082500
0.399601 0.100312 0.082500
0.501751 0.147199 0.082500
0.570903 0.203569 0.082500
0.596167 0.262326 0.082500
0.604943 0.321722 0.082500
0.600117 0.379138 0.082500
0.585766 0.433185 0.082500
0.566090 0.480533 0.082500
0.542268 0.523653 0.082500
0.519467 0.566090 0.082500
0.499195 0.608623 0.082500
0.488712 0.656722 0.082500
0.487302 0.705143 0.082500
0.500817 0.754111 0.082500
0.527724 0.801057 0.082500
0.595872 0.845744 0.082500
0.687082 0.883016 0.082500
0.829346 0.902067 0.082500
1.000000 0.908122 0.082500
0.000000 0.078659 0.082500
0.197800 0.085604 0.082500
0.357247 0.107891 0.082500
0.455180 0.150350 0.082500
0.525139 0.201704 0.082500
0.550432 0.254322 0.082500
0.561360 0.308957 0.082500
0.557349 0.361820 0.082500
0.544365 0.413351 0.082500
0.523653 0.457732 0.082500
0.500000 0.500000 0.082500
0.476347 0.542268 0.082500
0.455635 0.586649 0.082500
0.442651 0.638180 0.082500
0.438640 0.691043 0.082500
0.449568 0.745678 0.082500
0.474861 0.798296 0.082500
0.544820 0.849650 0.082500
0.642753 0.892109 0.082500
0.802200 0.914396 0.082500
1.000000 0.921341 0.082500
0.000000 0.091878 0.082500
0.170654 0.097933 0.082500
0.312918 0.116984 0.082500
0.404128 0.154256 0.082500
0.472276 0.198943 0.082500
0.499183 0.245889 0.082500
0.512698 0.294857 0.082500
0.511288 0.343278 0.082500
0.500805 0.391377 0.082500
0.480533 0.433910 0.082500
0.457732 0.476347 0.082500
0.433910 0.519467 0.082500
0.414234 0.566815 0.082500
0.399883 0.620862 0.082500
0.395057 0.678278 0.082500
0.403833 0.737674 0.082500
0.429097 0.796431 0.082500
0.498249 0.852801 0.082500
0.600399 0.899688 0.082500
0.774776 0.925325 0.082500
1.000000 0.932897 0.082500
0.000000 0.107152 0.082500
0.142491 0.112377 0.082500
0.266670 0.128653 0.082500
0.351272 0.161096 0.082500
0.417455 0.200982 0.082500
0.444149 0.242959 0.082500
0.458849 0.286977 0.082500
0.459378 0.330562 0.082500
0.451334 0.374346 0.082500
0.433185 0.414234 0.082500
0.413351 0.455635 0.082500
0.391377 0.499195 0.082500
0.374346 0.548666 0.082500
0.359524 0.604820 0.082500
0.355310 0.666526 0.082500
0.362272 0.730376 0.082500
0.388638 0.794751 0.082500
0.455165 0.855580 0.082500
0.560167 0.905944 0.082500
0.746998 0.934805 0.082500
1.000000 0.942867 0.082500
0.000000 0.126576 0.082500
0.114046 0.130943 0.082500
0.217055 0.143454 0.082500
0.290043 0.169979 0.082500
0.350022 0.201865 0.082500
0.379221 0.237904 0.082500
0.396641 0.277012 0.082500
0.400634 0.317589 0.082500
0.395180 0.359524 0.082500
0.379138 0.399883 0.082500
0.361820 0.442651 0.082500
0.343278 0.488712 0.082500
0.330562 0.540622 0.082500
0.317589 0.599366 0.082500
0.316789 0.664003 0.082500
0.323929 0.731168 0.082500
0.354667 0.798823 0.082500
0.418285 0.861612 0.082500
0.525614 0.912684 0.082500
0.722169 0.943525 0.082500
1.000000 0.951700 0.082500
0.000000 0.151382 0.082500
0.087332 0.154614 0.082500
0.169291 0.164262 0.082500
0.231512 0.186854 0.082500