# vtk DataFile Version 2.0
Mesh for Fierro
ASCII 
DATASET UNSTRUCTURED_GRID

POINTS 2205 float
0.000000 0.000000 0.000000
0.535869 0.000000 0.000000
0.924992 0.000000 0.000000
0.962076 0.000000 0.000000
0.969054 0.000000 0.000000
0.974178 0.000000 0.000000
0.978209 0.000000 0.000000
0.982167 0.000000 0.000000
0.985412 0.000000 0.000000
0.987840 0.000000 0.000000
0.989131 0.000000 0.000000
0.989772 0.000000 0.000000
0.990232 0.000000 0.000000
0.990590 0.000000 0.000000
0.990927 0.000000 0.000000
0.991307 0.000000 0.000000
0.991641 0.000000 0.000000
0.992456 0.000000 0.000000
0.994637 0.000000 0.000000
0.998276 0.000000 0.000000
1.000000 0.000000 0.000000
0.000000 0.001724 0.000000
0.594032 0.004997 0.000000
0.939187 0.052792 0.000000
0.927840 0.201312 0.000000
0.934657 0.257606 0.000000
0.937610 0.331795 0.000000
0.939744 0.391706 0.000000
0.938516 0.468808 0.000000
0.936605 0.552399 0.000000
0.938373 0.604302 0.000000
0.939393 0.661287 0.000000
0.942553 0.692006 0.000000
0.946782 0.710578 0.000000
0.950900 0.729021 0.000000
0.955725 0.740496 0.000000
0.961452 0.745069 0.000000
0.968219 0.740121 0.000000
0.976341 0.718299 0.000000
0.986329 0.670553 0.000000
0.995003 0.594032 0.000000
1.000000 0.535869 0.000000
0.000000 0.005363 0.000000
0.670553 0.013671 0.000000
0.934396 0.110422 0.000000
0.895138 0.296471 0.000000
0.918844 0.372165 0.000000
0.911406 0.533338 0.000000
0.904369 0.646917 0.000000
0.901225 0.736167 0.000000
0.891863 0.789219 0.000000
0.879050 0.809518 0.000000
0.857353 0.815747 0.000000
0.846271 0.823836 0.000000
0.840269 0.834553 0.000000
0.836400 0.845437 0.000000
0.834181 0.857424 0.000000
0.833791 0.871199 0.000000
0.837785 0.887589 0.000000
0.853718 0.910389 0.000000
0.889578 0.934396 0.000000
0.947208 0.939187 0.000000
1.000000 0.924992 0.000000
0.000000 0.007544 0.000000
0.718299 0.023659 0.000000
0.910389 0.146282 0.000000
0.890654 0.366342 0.000000
0.889999 0.521593 0.000000
0.875254 0.625143 0.000000
0.861241 0.700626 0.000000
0.832917 0.735834 0.000000
0.786428 0.756106 0.000000
0.732898 0.774651 0.000000
0.672666 0.800010 0.000000
0.639161 0.819582 0.000000
0.628944 0.834635 0.000000
0.620460 0.848950 0.000000
0.614152 0.861930 0.000000
0.609734 0.873989 0.000000
0.611617 0.884090 0.000000
0.633658 0.890654 0.000000
0.703529 0.895138 0.000000
0.798688 0.927840 0.000000
1.000000 0.962076 0.000000
0.000000 0.008359 0.000000
0.740121 0.031781 0.000000
0.887589 0.162215 0.000000
0.884090 0.388383 0.000000
0.848609 0.558619 0.000000
0.842314 0.636178 0.000000
0.801922 0.712316 0.000000
0.718037 0.743192 0.000000
0.642342 0.764890 0.000000
0.595230 0.784893 0.000000
0.541100 0.788671 0.000000
0.491968 0.781400 0.000000
0.478341 0.792967 0.000000
0.457308 0.797649 0.000000
0.443089 0.806487 0.000000
0.438159 0.823433 0.000000
0.441381 0.848609 0.000000
0.478407 0.889999 0.000000
0.627835 0.918844 0.000000
0.742394 0.934657 0.000000
1.000000 0.969054 0.000000
0.000000 0.008693 0.000000
0.745069 0.038548 0.000000
0.871199 0.166209 0.000000
0.873989 0.390266 0.000000
0.823433 0.561841 0.000000
0.804840 0.650996 0.000000
0.758849 0.708722 0.000000
0.670448 0.726068 0.000000
0.598671 0.738177 0.000000
0.544019 0.746091 0.000000
0.486415 0.735532 0.000000
0.431914 0.728015 0.000000
0.387370 0.728420 0.000000
0.358171 0.742119 0.000000
0.344497 0.768276 0.000000
0.349004 0.804840 0.000000
0.363822 0.842314 0.000000
0.374857 0.875254 0.000000
0.466662 0.911406 0.000000
0.668205 0.937610 0.000000
1.000000 0.974178 0.000000
0.000000 0.009073 0.000000
0.740496 0.044275 0.000000
0.857424 0.165819 0.000000
0.861930 0.385848 0.000000
0.806487 0.556911 0.000000
0.768276 0.655503 0.000000
0.702997 0.696455 0.000000
0.624161 0.701827 0.000000
0.555181 0.702474 0.000000
0.499907 0.698834 0.000000
0.445767 0.683396 0.000000
0.401155 0.676755 0.000000
0.365422 0.669200 0.000000
0.331216 0.679441 0.000000
0.303545 0.702997 0.000000
0.291278 0.758849 0.000000
0.287684 0.801922 0.000000
0.299374 0.861241 0.000000
0.353083 0.904369 0.000000
0.608294 0.939744 0.000000
1.000000 0.978209 0.000000
0.000000 0.009410 0.000000
0.729021 0.049100 0.000000
0.845437 0.163600 0.000000
0.848950 0.379540 0.000000
0.797649 0.542692 0.000000
0.742119 0.641829 0.000000
0.679441 0.668784 0.000000
0.607036 0.669324 0.000000
0.541799 0.663084 0.000000
0.486948 0.652845 0.000000
0.440918 0.630846 0.000000
0.402031 0.613806 0.000000
0.365883 0.600454 0.000000
0.330676 0.607036 0.000000
0.298173 0.624161 0.000000
0.273932 0.670448 0.000000
0.256808 0.718037 0.000000
0.264166 0.832917 0.000000
0.263833 0.901225 0.000000
0.531192 0.938516 0.000000
1.000000 0.982167 0.000000
0.000000 0.009768 0.000000
0.710578 0.053218 0.000000
0.834553 0.159731 0.000000
0.834635 0.371056 0.000000
0.792967 0.521659 0.000000
0.728420 0.612630 0.000000
0.669200 0.634578 0.000000
0.600454 0.634117 0.000000
0.540155 0.621853 0.000000
0.493400 0.605902 0.000000
0.453702 0.581836 0.000000
0.413386 0.558584 0.000000
0.378147 0.540155 0.000000
0.336916 0.541799 0.000000
0.297526 0.555181 0.000000
0.261823 0.598671 0.000000
0.235110 0.642342 0.000000
0.243894 0.786428 0.000000
0.210781 0.891863 0.000000
0.447601 0.936605 0.000000
1.000000 0.985412 0.000000
0.000000 0.010228 0.000000
0.692006 0.057447 0.000000
0.823836 0.153729 0.000000
0.819582 0.360839 0.000000
0.781400 0.508032 0.000000
0.728015 0.568086 0.000000
0.676755 0.598845 0.000000
0.613806 0.597969 0.000000
0.558584 0.586614 0.000000
0.513534 0.564450 0.000000
0.473089 0.538658 0.000000
0.435550 0.513534 0.000000
0.394098 0.493400 0.000000
0.347155 0.486948 0.000000
0.301166 0.499907 0.000000
0.253909 0.544019 0.000000
0.215107 0.595230 0.000000
0.225349 0.732898 0.000000
0.190482 0.879050 0.000000
0.395698 0.938373 0.000000
1.000000 0.987840 0.000000
0.000000 0.010869 0.000000
0.661287 0.060607 0.000000
0.815747 0.142647 0.000000
0.800010 0.327334 0.000000
0.788671 0.458900 0.000000
0.735532 0.513585 0.000000
0.683396 0.554233 0.000000
0.630846 0.559082 0.000000
0.581836 0.546298 0.000000
0.538658 0.526911 0.000000
0.500000 0.500000 0.000000
0.461342 0.473089 0.000000
0.418164 0.453702 0.000000
0.369154 0.440918 0.000000
0.316604 0.445767 0.000000
0.264468 0.486415 0.000000
0.211329 0.541100 0.000000
0.199990 0.672666 0.000000
0.184253 0.857353 0.000000
0.338713 0.939393 0.000000
1.000000 0.989131 0.000000
0.000000 0.012160 0.000000
0.604302 0.061627 0.000000
0.809518 0.120950 0.000000
0.774651 0.267102 0.000000
0.784893 0.404770 0.000000
0.746091 0.455981 0.000000
0.698834 0.500093 0.000000
0.652845 0.513052 0.000000
0.605902 0.506600 0.000000
0.564450 0.486466 0.000000
0.526911 0.461342 0.000000
0.486466 0.435550 0.000000
0.441416 0.413386 0.000000
0.386194 0.402031 0.000000
0.323245 0.401155 0.000000
0.271985 0.431914 0.000000
0.218600 0.491968 0.000000
0.180418 0.639161 0.000000
0.176164 0.846271 0.000000
0.307994 0.942553 0.000000
1.000000 0.989772 0.000000
0.000000 0.014588 0.000000
0.552399 0.063395 0.000000
0.789219 0.108137 0.000000
0.756106 0.213572 0.000000
0.764890 0.357658 0.000000
0.738177 0.401329 0.000000
0.702474 0.444819 0.000000
0.663084 0.458201 0.000000
0.621853 0.459845 0.000000
0.586614 0.441416 0.000000
0.546298 0.418164 0.000000
0.506600 0.394098 0.000000
0.459845 0.378147 0.000000
0.399546 0.365883 0.000000
0.330800 0.365422 0.000000
0.271580 0.387370 0.000000
0.207033 0.478341 0.000000
0.165365 0.628944 0.000000
0.165447 0.840269 0.000000
0.289422 0.946782 0.000000
1.000000 0.990232 0.000000
0.000000 0.017833 0.000000
0.468808 0.061484 0.000000
0.736167 0.098775 0.000000
0.735834 0.167083 0.000000
0.743192 0.281963 0.000000
0.726068 0.329552 0.000000
0.701827 0.375839 0.000000
0.669324 0.392964 0.000000
0.634117 0.399546 0.000000
0.597969 0.386194 0.000000
0.559082 0.369154 0.000000
0.513052 0.347155 0.000000
0.458201 0.336916 0.000000
0.392964 0.330676 0.000000
0.320559 0.331216 0.000000
0.257881 0.358171 0.000000
0.202351 0.457308 0.000000
0.151050 0.620460 0.000000
0.154563 0.836400 0.000000
0.270979 0.950900 0.000000
1.000000 0.990590 0.000000
0.000000 0.021791 0.000000
0.391706 0.060256 0.000000
0.646917 0.095631 0.000000
0.700626 0.138759 0.000000
0.712316 0.198078 0.000000
0.708722 0.241151 0.000000
0.696455 0.297003 0.000000
0.668784 0.320559 0.000000
0.634578 0.330800 0.000000
0.598845 0.323245 0.000000
0.554233 0.316604 0.000000
0.500093 0.301166 0.000000
0.444819 0.297526 0.000000
0.375839 0.298173 0.000000
0.297003 0.303545 0.000000
0.231724 0.344497 0.000000
0.193513 0.443089 0.000000
0.138070 0.614152 0.000000
0.142576 0.834181 0.000000
0.259504 0.955725 0.000000
1.000000 0.990927 0.000000
0.000000 0.025822 0.000000
0.331795 0.062390 0.000000
0.533338 0.088594 0.000000
0.625143 0.124746 0.000000
0.636178 0.157686 0.000000
0.650996 0.195160 0.000000
0.655503 0.231724 0.000000
0.641829 0.257881 0.000000
0.612630 0.271580 0.000000
0.568086 0.271985 0.000000
0.513585 0.264468 0.000000
0.455981 0.253909 0.000000
0.401329 0.261823 0.000000
0.329552 0.273932 0.000000
0.241151 0.291278 0.000000
0.195160 0.349004 0.000000
0.176567 0.438159 0.000000
0.126011 0.609734 0.000000
0.128801 0.833791 0.000000
0.254931 0.961452 0.000000
1.000000 0.991307 0.000000
0.000000 0.030946 0.000000
0.257606 0.065343 0.000000
0.372165 0.081156 0.000000
0.521593 0.110001 0.000000
0.558619 0.151391 0.000000
0.561841 0.176567 0.000000
0.556911 0.193513 0.000000
0.542692 0.202351 0.000000
0.521659 0.207033 0.000000
0.508032 0.218600 0.000000
0.458900 0.211329 0.000000
0.404770 0.215107 0.000000
0.357658 0.235110 0.000000
0.281963 0.256808 0.000000
0.198078 0.287684 0.000000
0.157686 0.363822 0.000000
0.151391 0.441381 0.000000
0.115910 0.611617 0.000000
0.112411 0.837785 0.000000
0.259879 0.968219 0.000000
1.000000 0.991641 0.000000
0.000000 0.037924 0.000000
0.201312 0.072160 0.000000
0.296471 0.104862 0.000000
0.366342 0.109346 0.000000
0.388383 0.115910 0.000000
0.390266 0.126011 0.000000
0.385848 0.138070 0.000000
0.379540 0.151050 0.000000
0.371056 0.165365 0.000000
[...]
POINT_DATA 2205 
VECTORS pos float 
0.000000 0.000000 0.000000
0.535869 0.000000 0.000000
0.924992 0.000000 0.000000
0.962076 0.000000 0.000000
0.969054 0.000000 0.000000
0.974178 0.000000 0.000000
0.978209 0.000000 0.000000
0.982167 0.000000 0.000000
0.985412 0.000000 0.000000
0.987840 0.000000 0.000000
0.989131 0.000000 0.000000
0.989772 0.000000 0.000000
0.990232 0.000000 0.000000
0.990590 0.000000 0.000000
0.990927 0.000000 0.000000
0.991307 0.000000 0.000000
0.991641 0.000000 0.000000
0.992456 0.000000 0.000000
0.994637 0.000000 0.000000
0.998276 0.000000 0.000000
1.000000 0.000000 0.000000
0.000000 0.001724 0.000000
0.594032 0.004997 0.000000
0.939187 0.052792 0.000000
0.927840 0.201312 0.000000
0.934657 0.257606 0.000000
0.937610 0.331795 0.000000
0.939744 0.391706 0.000000
0.938516 0.468808 0.000000
0.936605 0.552399 0.000000
0.938373 0.604302 0.000000
0.939393 0.661287 0.000000
0.942553 0.692006 0.000000
0.946782 0.710578 0.000000
0.950900 0.729021 0.000000
0.955725 0.740496 0.000000
0.961452 0.745069 0.000000
0.968219 0.740121 0.000000
0.976341 0.718299 0.000000
0.986329 0.670553 0.000000
0.995003 0.594032 0.000000
1.000000 0.535869 0.000000
0.000000 0.005363 0.000000
0.670553 0.013671 0.000000
0.934396 0.110422 0.000000
0.895138 0.296471 0.000000
0.918844 0.372165 0.000000
0.911406 0.533338 0.000000
0.904369 0.646917 0.000000
0.901225 0.736167 0.000000
0.891863 0.789219 0.000000
0.879050 0.809518 0.000000
0.857353 0.815747 0.000000
0.846271 0.823836 0.000000
0.840269 0.834553 0.000000
0.836400 0.845437 0.000000
0.834181 0.857424 0.000000
0.833791 0.871199 0.000000
0.837785 0.887589 0.000000
0.853718 0.910389 0.000000
0.889578 0.934396 0.000000
0.947208 0.939187 0.000000
1.000000 0.924992 0.000000
0.000000 0.007544 0.000000
0.718299 0.023659 0.000000
0.910389 0.146282 0.000000
0.890654 0.366342 0.000000
0.889999 0.521593 0.000000
0.875254 0.625143 0.000000
0.861241 0.700626 0.000000
0.832917 0.735834 0.000000
0.786428 0.756106 0.000000
0.732898 0.774651 0.000000
0.672666 0.800010 0.000000
0.639161 0.819582 0.000000
0.628944 0.834635 0.000000
0.620460 0.848950 0.000000
0.614152 0.861930 0.000000
0.609734 0.873989 0.000000
0.611617 0.884090 0.000000
0.633658 0.890654 0.000000
0.703529 0.895138 0.000000
0.798688 0.927840 0.000000
1.000000 0.962076 0.000000
0.000000 0.008359 0.000000
0.740121 0.031781 0.000000
0.887589 0.162215 0.000000
0.884090 0.388383 0.000000
0.848609 0.558619 0.000000
0.842314 0.636178 0.000000
0.801922 0.712316 0.000000
0.718037 0.743192 0.000000
0.642342 0.764890 0.000000
0.595230 0.784893 0.000000
0.541100 0.788671 0.000000
0.491968 0.781400 0.000000
0.478341 0.792967 0.000000
0.457308 0.797649 0.000000
0.443089 0.806487 0.000000
0.438159 0.823433 0.000000
0.441381 0.848609 0.000000
0.478407 0.889999 0.000000
0.627835 0.918844 0.000000
0.742394 0.934657 0.000000
1.000000 0.969054 0.000000
0.000000 0.008693 0.000000
0.745069 0.038548 0.000000
0.871199 0.166209 0.000000
0.873989 0.390266 0.000000
0.823433 0.561841 0.000000
0.804840 0.650996 0.000000
0.758849 0.708722 0.000000
0.670448 0.726068 0.000000
0.598671 0.738177 0.000000
0.544019 0.746091 0.000000
0.486415 0.735532 0.000000
0.431914 0.728015 0.000000
0.387370 0.728420 0.000000
0.358171 0.742119 0.000000
0.344497 0.768276 0.000000
0.349004 0.804840 0.000000
0.363822 0.842314 0.000000
0.374857 0.875254 0.000000
0.466662 0.911406 0.000000
0.668205 0.937610 0.000000
1.000000 0.974178 0.000000
0.000000 0.009073 0.000000
0.740496 0.044275 0.000000
0.857424 0.165819 0.000000
0.861930 0.385848 0.000000
0.806487 0.556911 0.000000
0.768276 0.655503 0.000000
0.702997 0.696455 0.000000
0.624161 0.701827 0.000000
0.555181 0.702474 0.000000
0.499907 0.698834 0.000000
0.445767 0.683396 0.000000
0.401155 0.676755 0.000000
0.365422 0.669200 0.000000
0.331216 0.679441 0.000000
0.303545 0.702997 0.000000
0.291278 0.758849 0.000000
0.287684 0.801922 0.000000
0.299374 0.861241 0.000000
0.353083 0.904369 0.000000
0.608294 0.939744 0.000000
1.000000 0.978209 0.000000
0.000000 0.009410 0.000000
0.729021 0.049100 0.000000
0.845437 0.163600 0.000000
0.848950 0.379540 0.000000
0.797649 0.542692 0.000000
0.742119 0.641829 0.000000
0.679441 0.668784 0.000000
0.607036 0.669324 0.000000
0.541799 0.663084 0.000000
0.486948 0.652845 0.000000
0.440918 0.630846 0.000000
0.402031 0.613806 0.000000
0.365883 0.600454 0.000000
0.330676 0.607036 0.000000
0.298173 0.624161 0.000000
0.273932 0.670448 0.000000
0.256808 0.718037 0.000000
0.264166 0.832917 0.000000
0.263833 0.901225 0.000000
0.531192 0.938516 0.000000
1.000000 0.982167 0.000000
0.000000 0.009768 0.000000
0.710578 0.053218 0.000000
0.834553 0.159731 0.000000
0.834635 0.371056 0.000000
0.792967 0.521659 0.000000
0.728420 0.612630 0.000000
0.669200 0.634578 0.000000
0.600454 0.634117 0.000000
0.540155 0.621853 0.000000
0.493400 0.605902 0.000000
0.453702 0.581836 0.000000
0.413386 0.558584 0.000000
0.378147 0.540155 0.000000
0.336916 0.541799 0.000000
0.297526 0.555181 0.000000
0.261823 0.598671 0.000000
0.235110 0.642342 0.000000
0.243894 0.786428 0.000000
0.210781 0.891863 0.000000
0.447601 0.936605 0.000000
1.000000 0.985412 0.000000
0.000000 0.010228 0.000000
0.692006 0.057447 0.000000
0.823836 0.153729 0.000000
0.819582 0.360839 0.000000
0.781400 0.508032 0.000000
0.728015 0.568086 0.000000
0.676755 0.598845 0.000000
0.613806 0.597969 0.000000
0.558584 0.586614 0.000000
0.513534 0.564450 0.000000
0.473089 0.538658 0.000000
0.435550 0.513534 0.000000
0.394098 0.493400 0.000000
0.347155 0.486948 0.000000
0.301166 0.499907 0.000000
0.253909 0.544019 0.000000
0.215107 0.595230 0.000000
0.225349 0.732898 0.000000
0.190482 0.879050 0.000000
0.395698 0.938373 0.000000
1.000000 0.987840 0.000000
0.000000 0.010869 0.000000
0.661287 0.060607 0.000000
0.815747 0.142647 0.000000
0.800010 0.327334 0.000000
0.788671 0.458900 0.000000
0.735532 0.513585 0.000000
0.683396 0.554233 0.000000
0.630846 0.559082 0.000000
0.581836 0.546298 0.000000
0.538658 0.526911 0.000000
0.500000 0.500000 0.000000
0.461342 0.473089 0.000000
0.418164 0.453702 0.000000
0.369154 0.440918 0.000000
0.316604 0.445767 0.000000
0.264468 0.486415 0.000000
0.211329 0.541100 0.000000
0.199990 0.672666 0.000000
0.184253 0.857353 0.000000
0.338713 0.939393 0.000000
1.000000 0.989131 0.000000
0.000000 0.012160 0.000000
0.604302 0.061627 0.000000
0.809518 0.120950 0.000000
0.774651 0.267102 0.000000
0.784893 0.404770 0.000000
0.746091 0.455981 0.000000
0.698834 0.500093 0.000000
0.652845 0.513052 0.000000
0.605902 0.506600 0.000000
0.564450 0.486466 0.000000
0.526911 0.461342 0.000000
0.486466 0.435550 0.000000
0.441416 0.413386 0.000000
0.386194 0.402031 0.000000
0.323245 0.401155 0.000000
0.271985 0.431914 0.000000
0.218600 0.491968 0.000000
0.180418 0.639161 0.000000
0.176164 0.846271 0.000000
0.307994 0.942553 0.000000
1.000000 0.989772 0.000000
0.000000 0.014588 0.000000
0.552399 0.063395 0.000000
0.789219 0.108137 0.000000
0.756106 0.213572 0.000000
0.764890 0.357658 0.000000
0.738177 0.401329 0.000000
0.702474 0.444819 0.000000
0.663084 0.458201 0.000000
0.621853 0.459845 0.000000
0.586614 0.441416 0.000000
0.546298 0.418164 0.000000
0.506600 0.394098 0.000000
0.459845 0.378147 0.000000
0.399546 0.365883 0.000000
0.330800 0.365422 0.000000
0.271580 0.387370 0.000000
0.207033 0.478341 0.000000
0.165365 0.628944 0.000000
0.165447 0.840269 0.000000
0.289422 0.946782 0.000000
1.000000 0.990232 0.000000
0.000000 0.017833 0.000000
0.468808 0.061484 0.000000
0.736167 0.098775 0.000000
0.735834 0.167083 0.000000
0.743192 0.281963 0.000000
0.726068 0.329552 0.000000
0.701827 0.375839 0.000000
0.669324 0.392964 0.000000
0.634117 0.399546 0.000000
0.597969 0.386194 0.000000
0.559082 0.369154 0.000000
0.513052 0.347155 0.000000
0.458201 0.336916 0.000000
0.392964 0.330676 0.000000
0.320559 0.331216 0.000000
0.257881 0.358171 0.000000
0.202351 0.457308 0.000000
0.151050 0.620460 0.000000
0.154563 0.836400 0.000000
0.270979 0.950900 0.000000
1.000000 0.990590 0.000000
0.000000 0.021791 0.000000
0.391706 0.060256 0.000000
0.646917 0.095631 0.000000
0.700626 0.138759 0.000000
0.712316 0.198078 0.000000
0.708722 0.241151 0.000000
0.696455 0.297003 0.000000
0.668784 0.320559 0.000000
0.634578 0.330800 0.000000
0.598845 0.323245 0.000000
0.554233 0.316604 0.000000
0.500093 0.301166 0.000000
0.444819 0.297526 0.000000
0.375839 0.298173 0.000000
0.297003 0.303545 0.000000
0.231724 0.344497 0.000000
0.193513 0.443089 0.000000
0.138070 0.614152 0.000000
0.142576 0.834181 0.000000
0.259504 0.955725 0.000000
1.000000 0.990927 0.000000
0.000000 0.025822 0.000000
0.331795 0.062390 0.000000
0.533338 0.088594 0.000000
0.625143 0.124746 0.000000
0.636178 0.157686 0.000000
0.650996 0.195160 0.000000
0.655503 0.231724 0.000000
0.641829 0.257881 0.000000
0.612630 0.271580 0.000000
0.568086 0.271985 0.000000
0.513585 0.264468 0.000000
0.455981 0.253909 0.000000
0.401329 0.261823 0.000000
0.329552 0.273932 0.000000
0.241151 0.291278 0.000000
0.195160 0.349004 0.000000
0.176567 0.438159 0.000000
0.126011 0.609734 0.000000
0.128801 0.833791 0.000000
0.254931 0.961452 0.000000
1.000000 0.991307 0.000000
0.000000 0.030946 0.000000
0.257606 0.065343 0.000000
0.372165 0.081156 0.000000
0.521593 0.110001 0.000000
0.558619 0.151391 0.000000
0.561841 0.176567 0.000000
0.556911 0.193513 0.000000
0.542692 0.202351 0.000000
0.521659 0.207033 0.000000
0.508032 0.218600 0.000000
0.458900 0.211329 0.000000
0.404770 0.215107 0.000000
0.357658 0.235110 0.000000
0.281963 0.256808 0.000000
0.198078 0.287684 0.000000
0.157686 0.363822 0.000000
0.151391 0.441381 0.000000
0.115910 0.611617 0.000000
0.112411 0.837785 0.000000
0.259879 0.968219 0.000000
1.000000 0.991641 0.000000
0.000000 0.037924 0.000000
0.201312 0.072160 0.000000
0.296471 0.104862 0.000000
0.366342 0.109346 0.000000
0.388383 0.115910 0.000000
0.390266 0.126011 0.000000
0.385848 0.138070 0.000000
0.379540 0.151050 0.000000
0.371056 0.165365 0.000000
0.360839 0.180418 0.000000
0.327334 0.199990 0.000000
0.267102 0.225349 0.000000
0.213572 0.243894 0.000000
0.167083 0.264166 0.000000
0.138759 0.299374 0.000000
0.124746 0.374857 0.000000
0.110001 0.478407 0.000000
0.109346 0.633658 0.000000
0.089611 0.853718 0.000000
0.281701 0.976341 0.000000
1.000000 0.992456 0.000000
0.000000 0.075008 0.000000
0.052792 0.060813 0.000000
0.110422 0.065604 0.000000
0.146282 0.089611 0.000000
0.162215 0.112411 0.000000
0.166209 0.128801 0.000000
0.165819 0.142576 0.000000
0.163600 0.154563 0.000000
0.159731 0.165447 0.000000
0.153729 0.176164 0.000000
0.142647 0.184253 0.000000
0.120950 0.190482 0.000000
0.108137 0.210781 0.000000
0.098775 0.263833 0.000000
0.095631 0.353083 0.000000
0.088594 0.466662 0.000000
0.081156 0.627835 0.000000
0.104862 0.703529 0.000000
0.065604 0.889578 0.000000
0.329447 0.986329 0.000000
1.000000 0.994637 0.000000
0.000000 0.464131 0.000000
0.004997 0.405968 0.000000
0.013671 0.329447 0.000000
0.023659 0.281701 0.000000
0.031781 0.259879 0.000000
0.038548 0.254931 0.000000
0.044275 0.259504 0.000000
0.049100 0.270979 0.000000
0.053218 0.289422 0.000000
0.057447 0.307994 0.000000
0.060607 0.338713 0.000000
0.061627 0.395698 0.000000
0.063395 0.447601 0.000000
0.061484 0.531192 0.000000
0.060256 0.608294 0.000000
0.062390 0.668205 0.000000
0.065343 0.742394 0.000000
0.072160 0.798688 0.000000
0.060813 0.947208 0.000000
0.405968 0.995003 0.000000
1.000000 0.998276 0.000000
0.000000 1.000000 0.000000
0.001724 1.000000 0.000000
0.005363 1.000000 0.000000
0.007544 1.000000 0.000000
0.008359 1.000000 0.000000
0.008693 1.000000 0.000000
0.009073 1.000000 0.000000
0.009410 1.000000 0.000000
0.009768 1.000000 0.000000
0.010228 1.000000 0.000000
0.010869 1.000000 0.000000
0.012160 1.000000 0.000000
0.014588 1.000000 0.000000
0.017833 1.000000 0.000000
0.021791 1.000000 0.000000
0.025822 1.000000 0.000000
0.030946 1.000000 0.000000
0.037924 1.000000 0.000000
0.075008 1.000000 0.000000
0.464131 1.000000 0.000000
1.000000 1.000000 0.000000
0.000000 0.000000 0.082500
0.535869 0.000000 0.082500
0.924992 0.000000 0.082500
0.962076 0.000000 0.082500
0.969054 0.000000 0.082500
0.974178 0.000000 0.082500
0.978209 0.000000 0.082500
0.982167 0.000000 0.082500
0.985412 0.000000 0.082500
0.987840 0.000000 0.082500
0.989131 0.000000 0.082500
0.989772 0.000000 0.082500
0.990232 0.000000 0.082500
0.990590 0.000000 0.082500
0.990927 0.000000 0.082500
0.991307 0.000000 0.082500
0.991641 0.000000 0.082500
0.992456 0.000000 0.082500
0.994637 0.000000 0.082500
0.998276 0.000000 0.082500
1.000000 0.000000 0.082500
0.000000 0.001724 0.082500
0.594032 0.004997 0.082500
0.939187 0.052792 0.082500
0.927840 0.201312 0.082500
0.934657 0.257606 0.082500
0.937610 0.331795 0.082500
0.939744 0.391706 0.082500
0.938516 0.468808 0.082500
0.936605 0.552399 0.082500
0.938373 0.604302 0.082500
0.939393 0.661287 0.082500
0.942553 0.692006 0.082500
0.946782 0.710578 0.082500
0.950900 0.729021 0.082500
0.955725 0.740496 0.082500
0.961452 0.745069 0.082500
0.968219 0.740121 0.082500
0.976341 0.718299 0.082500
0.986329 0.670553 0.082500
0.995003 0.594032 0.082500
1.000000 0.535869 0.082500
0.000000 0.005363 0.082500
0.670553 0.013671 0.082500
0.934396 0.110422 0.082500
0.895138 0.296471 0.082500
0.918844 0.372165 0.082500
0.911406 0.533338 0.082500
0.904369 0.646917 0.082500
0.901225 0.736167 0.082500
0.891863 0.789219 0.082500
0.879050 0.809518 0.082500
0.857353 0.815747 0.082500
0.846271 0.823836 0.082500
0.840269 0.834553 0.082500
0.836400 0.845437 0.082500
0.834181 0.857424 0.082500
0.833791 0.871199 0.082500
0.837785 0.887589 0.082500
0.853718 0.910389 0.082500
0.889578 0.934396 0.082500
0.947208 0.939187 0.082500
1.000000 0.924992 0.082500
0.000000 0.007544 0.082500
0.718299 0.023659 0.082500
0.910389 0.146282 0.082500
0.890654 0.366342 0.082500
0.889999 0.521593 0.082500
0.875254 0.625143 0.082500
0.861241 0.700626 0.082500
0.832917 0.735834 0.082500
0.786428 0.756106 0.082500
0.732898 0.774651 0.082500
0.672666 0.800010 0.082500
0.639161 0.819582 0.082500
0.628944 0.834635 0.082500
0.620460 0.848950 0.082500
0.614152 0.861930 0.082500
0.609734 0.873989 0.082500
0.611617 0.884090 0.082500
0.633658 0.890654 0.082500
0.703529 0.895138 0.082500
0.798688 0.927840 0.082500
1.000000 0.962076 0.082500
0.000000 0.008359 0.082500
0.740121 0.031781 0.082500
0.887589 0.162215 0.082500
0.884090 0.388383 0.082500
0.848609 0.558619 0.082500
0.842314 0.636178 0.082500
0.801922 0.712316 0.082500
0.718037 0.743192 0.082500
0.642342 0.764890 0.082500
0.595230 0.784893 0.082500
0.541100 0.788671 0.082500
0.491968 0.781400 0.082500
0.478341 0.792967 0.082500
0.457308 0.797649 0.082500
0.443089 0.806487 0.082500
0.438159 0.823433 0.082500
0.441381 0.848609 0.082500
0.478407 0.889999 0.082500
0.627835 0.918844 0.082500
0.742394 0.934657 0.082500
1.000000 0.969054 0.082500
0.000000 0.008693 0.082500
0.745069 0.038548 0.082500
0.871199 0.166209 0.082500
0.873989 0.390266 0.082500
0.823433 0.561841 0.082500
0.804840 0.650996 0.082500
0.758849 0.708722 0.082500
0.670448 0.726068 0.082500
0.598671 0.738177 0.082500
0.544019 0.746091 0.082500
0.486415 0.735532 0.082500
0.431914 0.728015 0.082500
0.387370 0.728420 0.082500
0.358171 0.742119 0.082500
0.344497 0.768276 0.082500
0.349004 0.804840 0.082500
0.363822 0.842314 0.082500
0.374857 0.875254 0.082500
0.466662 0.911406 0.082500
0.668205 0.937610 0.082500
1.000000 0.974178 0.082500
0.000000 0.009073 0.082500
0.740496 0.044275 0.082500
0.857424 0.165819 0.082500
0.861930 0.385848 0.082500
0.806487 0.556911 0.082500
0.768276 0.655503 0.082500
0.702997 0.696455 0.082500
0.624161 0.701827 0.082500
0.555181 0.702474 0.082500
0.499907 0.698834 0.082500
0.445767 0.683396 0.082500
0.401155 0.676755 0.082500
0.365422 0.669200 0.082500
0.331216 0.679441 0.082500
0.303545 0.702997 0.082500
0.291278 0.758849 0.082500
0.287684 0.801922 0.082500
0.299374 0.861241 0.082500
0.353083 0.904369 0.082500
0.608294 0.939744 0.082500
1.000000 0.978209 0.082500
0.000000 0.009410 0.082500
0.729021 0.049100 0.082500
0.845437 0.163600 0.082500
0.848950 0.379540 0.082500
0.797649 0.542692 0.082500
0.742119 0.641829 0.082500
0.679441 0.668784 0.082500
0.607036 0.669324 0.082500
0.541799 0.663084 0.082500
0.486948 0.652845 0.082500
0.440918 0.630846 0.082500
0.402031 0.613806 0.082500
0.365883 0.600454 0.082500
0.330676 0.607036 0.082500
0.298173 0.624161 0.082500
0.273932 0.670448 0.082500
0.256808 0.718037 0.082500
0.264166 0.832917 0.082500
0.263833 0.901225 0.082500
0.531192 0.938516 0.082500
1.000000 0.982167 0.082500
0.000000 0.009768 0.082500
0.710578 0.053218 0.082500
0.834553 0.159731 0.082500
0.834635 0.371056 0.082500
0.792967 0.521659 0.082500
0.728420 0.612630 0.082500
0.669200 0.634578 0.082500
0.600454 0.634117 0.082500
0.540155 0.621853 0.082500
0.493400 0.605902 0.082500
0.453702 0.581836 0.082500
0.413386 0.558584 0.082500
0.378147 0.540155 0.082500
0.336916 0.541799 0.082500
0.297526 0.555181 0.082500
0.261823 0.598671 0.082500
0.235110 0.642342 0.082500
0.243894 0.786428 0.082500
0.210781 0.891863 0.082500
0.447601 0.936605 0.082500
1.000000 0.985412 0.082500
0.000000 0.010228 0.082500
0.692006 0.057447 0.082500
0.823836 0.153729 0.082500
0.819582 0.360839 0.082500
0.781400 0.508032 0.082500
0.728015 0.568086 0.082500
0.676755 0.598845 0.082500
0.613806 0.597969 0.082500
0.558584 0.586614 0.082500
0.513534 0.564450 0.082500
0.473089 0.538658 0.082500
0.435550 0.513534 0.082500
0.394098 0.493400 0.082500
0.347155 0.486948 0.082500
0.301166 0.499907 0.082500
0.253909 0.544019 0.082500
0.215107 0.595230 0.082500
0.225349 0.732898 0.082500
0.190482 0.879050 0.082500
0.395698 0.938373 0.082500
1.000000 0.987840 0.082500
0.000000 0.010869 0.082500
0.661287 0.060607 0.082500
0.815747 0.142647 0.082500
0.800010 0.327334 0.082500
0.788671 0.458900 0.082500
0.735532 0.513585 0.082500
0.683396 0.554233 0.082500
0.630846 0.559082 0.082500
0.581836 0.546298 0.082500
0.538658 0.526911 0.082500
0.500000 0.500000 0.082500
0.461342 0.473089 0.082500
0.418164 0.453702 0.082500
0.369154 0.440918 0.082500
0.316604 0.445767 0.082500
0.264468 0.486415 0.082500
0.211329 0.541100 0.082500
0.199990 0.672666 0.082500
0.184253 0.857353 0.082500
0.338713 0.939393 0.082500
1.000000 0.989131 0.082500
0.000000 0.012160 0.082500
0.604302 0.061627 0.082500
0.809518 0.120950 0.082500
0.774651 0.267102 0.082500
0.784893 0.404770 0.082500
0.746091 0.455981 0.082500
0.698834 0.500093 0.082500
0.652845 0.513052 0.082500
0.605902 0.506600 0.082500
0.564450 0.486466 0.082500
0.526911 0.461342 0.082500
0.486466 0.435550 0.082500
0.441416 0.413386 0.082500
0.386194 0.402031 0.082500
0.323245 0.401155 0.082500
0.271985 0.431914 0.082500
0.218600 0.491968 0.082500
0.180418 0.639161 0.082500
0.176164 0.846271 0.082500
0.307994 0.942553 0.082500
1.000000 0.989772 0.082500
0.000000 0.014588 0.082500
0.552399 0.063395 0.082500
0.789219 0.108137 0.082500
0.756106 0.213572 0.082500
0.764890 0.357658 0.082500
0.738177 0.401329 0.082500
0.702474 0.444819 0.082500
0.663084 0.458201 0.082500
0.621853 0.459845 0.082500
0.586614 0.441416 0.082500
0.546298 0.418164 0.082500
0.506600 0.394098 0.082500
0.459845 0.378147 0.082500
0.399546 0.365883 0.082500
0.330800 0.365422 0.082500
0.271580 0.387370 0.082500
0.207033 0.478341 0.082500
0.165365 0.628944 0.082500
0.165447 0.840269 0.082500
0.289422 0.946782 0.082500
1.000000 0.990232 0.082500
0.000000 0.017833 0.082500
0.468808 0.061484 0.082500
0.736167 0.098775 0.082500
0.735834 0.167083 0.082500
0.743192 0.281963 0.082500
0.726068 0.329552 0.082500
0.701827 0.375839 0.082500
0.669324 0.392964 0.082500
0.634117 0.399546 0.082500
0.597969 0.386194 0.082500
0.559082 0.369154 0.082500
0.513052 0.347155 0.082500
0.458201 0.336916 0.082500
0.392964 0.330676 0.082500
0.320559 0.331216 0.082500
0.257881 0.358171 0.082500
0.202351 0.457308 0.082500
0.151050 0.620460 0.082500
0.154563 0.836400 0.082500
0.270979 0.950900 0.082500
1.000000 0.990590 0.082500
0.000000 0.021791 0.082500
0.391706 0.060256 0.082500
0.646917 0.095631 0.082500
0.700626 0.138759 0.082500