# vtk DataFile Version 2.0
Mesh for Fierro
ASCII 
DATASET UNSTRUCTURED_GRID

POINTS 2205 float
0.000000 0.000000 0.000000
0.102231 0.000000 0.000000
0.199948 0.000000 0.000000
0.292263 0.000000 0.000000
0.376282 0.000000 0.000000
0.449341 0.000000 0.000000
0.514406 0.000000 0.000000
0.571294 0.000000 0.000000
0.622482 0.000000 0.000000
0.669109 0.000000 0.000000
0.711034 0.000000 0.000000
0.749235 0.000000 0.000000
0.783403 0.000000 0.000000
0.815842 0.000000 0.000000
0.845603 0.000000 0.000000
0.873971 0.000000 0.000000
0.900927 0.000000 0.000000
0.926075 0.000000 0.000000
0.951403 0.000000 0.000000
0.975624 0.000000 0.000000
1.000000 0.000000 0.000000
0.000000 0.024376 0.000000
0.101733 0.024958 0.000000
0.198740 0.026137 0.000000
0.290823 0.028633 0.000000
0.374902 0.031615 0.000000
0.447562 0.035765 0.000000
0.512383 0.040484 0.000000
0.569104 0.045595 0.000000
0.620220 0.051233 0.000000
0.666661 0.057027 0.000000
0.708487 0.062953 0.000000
0.746575 0.068996 0.000000
0.780862 0.075110 0.000000
0.813199 0.080813 0.000000
0.843054 0.086021 0.000000
0.871536 0.090656 0.000000
0.899023 0.094504 0.000000
0.924457 0.097792 0.000000
0.950314 0.100201 0.000000
0.975042 0.101733 0.000000
1.000000 0.102231 0.000000
0.000000 0.048597 0.000000
0.100201 0.049686 0.000000
0.195874 0.052792 0.000000
0.286696 0.057709 0.000000
0.369740 0.063178 0.000000
0.441673 0.071497 0.000000
0.505938 0.080803 0.000000
0.562077 0.090809 0.000000
0.612629 0.101595 0.000000
0.658776 0.112796 0.000000
0.700439 0.124270 0.000000
0.738408 0.135812 0.000000
0.773033 0.147607 0.000000
0.805659 0.158684 0.000000
0.836077 0.168546 0.000000
0.865447 0.177458 0.000000
0.893722 0.184999 0.000000
0.920768 0.191421 0.000000
0.947208 0.195874 0.000000
0.973863 0.198740 0.000000
1.000000 0.199948 0.000000
0.000000 0.073925 0.000000
0.097792 0.075543 0.000000
0.191421 0.079232 0.000000
0.280311 0.085984 0.000000
0.362010 0.094795 0.000000
0.432466 0.106872 0.000000
0.495463 0.120380 0.000000
0.550732 0.135028 0.000000
0.600654 0.150700 0.000000
0.646238 0.166908 0.000000
0.687569 0.183757 0.000000
0.725163 0.200527 0.000000
0.759939 0.217463 0.000000
0.793064 0.233283 0.000000
0.824141 0.247595 0.000000
0.854788 0.260334 0.000000
0.884213 0.271209 0.000000
0.914016 0.280311 0.000000
0.942291 0.286696 0.000000
0.971367 0.290823 0.000000
1.000000 0.292263 0.000000
0.000000 0.099073 0.000000
0.094504 0.100977 0.000000
0.184999 0.106278 0.000000
0.271209 0.115787 0.000000
0.350920 0.126789 0.000000
0.419174 0.142051 0.000000
0.480596 0.159261 0.000000
0.534896 0.178031 0.000000
0.584235 0.198145 0.000000
0.629060 0.218951 0.000000
0.670031 0.240546 0.000000
0.707557 0.261962 0.000000
0.742697 0.283490 0.000000
0.776844 0.303197 0.000000
0.809227 0.321349 0.000000
0.841572 0.337256 0.000000
0.873211 0.350920 0.000000
0.905205 0.362010 0.000000
0.936822 0.369740 0.000000
0.968385 0.374902 0.000000
1.000000 0.376282 0.000000
0.000000 0.126029 0.000000
0.090656 0.128464 0.000000
0.177458 0.134553 0.000000
0.260334 0.145212 0.000000
0.337256 0.158428 0.000000
0.402868 0.176001 0.000000
0.462358 0.196025 0.000000
0.515593 0.217967 0.000000
0.564251 0.241353 0.000000
0.608048 0.265446 0.000000
0.648313 0.290451 0.000000
0.685665 0.315186 0.000000
0.720769 0.339918 0.000000
0.755773 0.362924 0.000000
0.789710 0.383999 0.000000
0.823999 0.402868 0.000000
0.857949 0.419174 0.000000
0.893128 0.432466 0.000000
0.928503 0.441673 0.000000
0.964235 0.447562 0.000000
1.000000 0.449341 0.000000
0.000000 0.154397 0.000000
0.086021 0.156946 0.000000
0.168546 0.163923 0.000000
0.247595 0.175859 0.000000
0.321349 0.190773 0.000000
0.383999 0.210290 0.000000
0.441239 0.232515 0.000000
0.492977 0.256941 0.000000
0.540529 0.282961 0.000000
0.583196 0.309774 0.000000
0.622883 0.337559 0.000000
0.660233 0.364981 0.000000
0.695632 0.392270 0.000000
0.731733 0.417826 0.000000
0.767485 0.441239 0.000000
0.803975 0.462358 0.000000
0.840739 0.480596 0.000000
0.879620 0.495463 0.000000
0.919197 0.505938 0.000000
0.959516 0.512383 0.000000
1.000000 0.514406 0.000000
0.000000 0.184158 0.000000
0.080813 0.186801 0.000000
0.158684 0.194341 0.000000
0.233283 0.206936 0.000000
0.303197 0.223156 0.000000
0.362924 0.244227 0.000000
0.417826 0.268267 0.000000
0.467803 0.294704 0.000000
0.514059 0.322816 0.000000
0.555606 0.351881 0.000000
0.594594 0.381921 0.000000
0.631893 0.411432 0.000000
0.667788 0.440436 0.000000
0.705296 0.467803 0.000000
0.743059 0.492977 0.000000
0.782033 0.515593 0.000000
0.821969 0.534896 0.000000
0.864972 0.550732 0.000000
0.909191 0.562077 0.000000
0.954405 0.569104 0.000000
1.000000 0.571294 0.000000
0.000000 0.216597 0.000000
0.075110 0.219138 0.000000
0.147607 0.226967 0.000000
0.217463 0.240061 0.000000
0.283490 0.257303 0.000000
0.339918 0.279231 0.000000
0.392270 0.304368 0.000000
0.440436 0.332212 0.000000
0.485603 0.361996 0.000000
0.525833 0.392661 0.000000
0.564141 0.424351 0.000000
0.601474 0.455417 0.000000
0.638004 0.485603 0.000000
0.677184 0.514059 0.000000
0.717039 0.540529 0.000000
0.758647 0.564251 0.000000
0.801855 0.584235 0.000000
0.849300 0.600654 0.000000
0.898405 0.612629 0.000000
0.948767 0.620220 0.000000
1.000000 0.622482 0.000000
0.000000 0.250765 0.000000
0.068996 0.253425 0.000000
0.135812 0.261592 0.000000
0.200527 0.274837 0.000000
0.261962 0.292443 0.000000
0.315186 0.314335 0.000000
0.364981 0.339767 0.000000
0.411432 0.368107 0.000000
0.455417 0.398526 0.000000
0.494676 0.429986 0.000000
0.532580 0.462488 0.000000
0.570014 0.494676 0.000000
0.607339 0.525833 0.000000
0.648119 0.555606 0.000000
0.690226 0.583196 0.000000
0.734554 0.608048 0.000000
0.781049 0.629060 0.000000
0.833092 0.646238 0.000000
0.887204 0.658776 0.000000
0.942973 0.666661 0.000000
1.000000 0.669109 0.000000
0.000000 0.288966 0.000000
0.062953 0.291513 0.000000
0.124270 0.299561 0.000000
0.183757 0.312431 0.000000
0.240546 0.329969 0.000000
0.290451 0.351687 0.000000
0.337559 0.377117 0.000000
0.381921 0.405406 0.000000
0.424351 0.435859 0.000000
0.462488 0.467420 0.000000
0.500000 0.500000 0.000000
0.537512 0.532580 0.000000
0.575649 0.564141 0.000000
0.618079 0.594594 0.000000
0.662441 0.622883 0.000000
0.709549 0.648313 0.000000
0.759454 0.670031 0.000000
0.816243 0.687569 0.000000
0.875730 0.700439 0.000000
0.937047 0.708487 0.000000
1.000000 0.711034 0.000000
0.000000 0.330891 0.000000
0.057027 0.333339 0.000000
0.112796 0.341224 0.000000
0.166908 0.353762 0.000000
0.218951 0.370940 0.000000
0.265446 0.391952 0.000000
0.309774 0.416804 0.000000
0.351881 0.444394 0.000000
0.392661 0.474167 0.000000
0.429986 0.505324 0.000000
0.467420 0.537512 0.000000
0.505324 0.570014 0.000000
0.544583 0.601474 0.000000
0.588568 0.631893 0.000000
0.635019 0.660233 0.000000
0.684814 0.685665 0.000000
0.738038 0.707557 0.000000
0.799473 0.725163 0.000000
0.864188 0.738408 0.000000
0.931004 0.746575 0.000000
1.000000 0.749235 0.000000
0.000000 0.377518 0.000000
0.051233 0.379780 0.000000
0.101595 0.387371 0.000000
0.150700 0.399346 0.000000
0.198145 0.415765 0.000000
0.241353 0.435749 0.000000
0.282961 0.459471 0.000000
0.322816 0.485941 0.000000
0.361996 0.514397 0.000000
0.398526 0.544583 0.000000
0.435859 0.575649 0.000000
0.474167 0.607339 0.000000
0.514397 0.638004 0.000000
0.559564 0.667788 0.000000
0.607730 0.695632 0.000000
0.660082 0.720769 0.000000
0.716510 0.742697 0.000000
0.782537 0.759939 0.000000
0.852393 0.773033 0.000000
0.924890 0.780862 0.000000
1.000000 0.783403 0.000000
0.000000 0.428706 0.000000
0.045595 0.430896 0.000000
0.090809 0.437923 0.000000
0.135028 0.449268 0.000000
0.178031 0.465104 0.000000
0.217967 0.484407 0.000000
0.256941 0.507023 0.000000
0.294704 0.532197 0.000000
0.332212 0.559564 0.000000
0.368107 0.588568 0.000000
0.405406 0.618079 0.000000
0.444394 0.648119 0.000000
0.485941 0.677184 0.000000
0.532197 0.705296 0.000000
0.582174 0.731733 0.000000
0.637076 0.755773 0.000000
0.696803 0.776844 0.000000
0.766717 0.793064 0.000000
0.841316 0.805659 0.000000
0.919187 0.813199 0.000000
1.000000 0.815842 0.000000
0.000000 0.485594 0.000000
0.040484 0.487617 0.000000
0.080803 0.494062 0.000000
0.120380 0.504537 0.000000
0.159261 0.519404 0.000000
0.196025 0.537642 0.000000
0.232515 0.558761 0.000000
0.268267 0.582174 0.000000
0.304368 0.607730 0.000000
0.339767 0.635019 0.000000
0.377117 0.662441 0.000000
0.416804 0.690226 0.000000
0.459471 0.717039 0.000000
0.507023 0.743059 0.000000
0.558761 0.767485 0.000000
0.616001 0.789710 0.000000
0.678651 0.809227 0.000000
0.752405 0.824141 0.000000
0.831454 0.836077 0.000000
0.913979 0.843054 0.000000
1.000000 0.845603 0.000000
0.000000 0.550659 0.000000
0.035765 0.552438 0.000000
0.071497 0.558327 0.000000
0.106872 0.567534 0.000000
0.142051 0.580826 0.000000
0.176001 0.597132 0.000000
0.210290 0.616001 0.000000
0.244227 0.637076 0.000000
0.279231 0.660082 0.000000
0.314335 0.684814 0.000000
0.351687 0.709549 0.000000
0.391952 0.734554 0.000000
0.435749 0.758647 0.000000
0.484407 0.782033 0.000000
0.537642 0.803975 0.000000
0.597132 0.823999 0.000000
0.662744 0.841572 0.000000
0.739666 0.854788 0.000000
0.822542 0.865447 0.000000
0.909344 0.871536 0.000000
1.000000 0.873971 0.000000
0.000000 0.623718 0.000000
0.031615 0.625098 0.000000
0.063178 0.630260 0.000000
0.094795 0.637990 0.000000
0.126789 0.649080 0.000000
0.158428 0.662744 0.000000
0.190773 0.678651 0.000000
0.223156 0.696803 0.000000
0.257303 0.716510 0.000000
0.292443 0.738038 0.000000
0.329969 0.759454 0.000000
0.370940 0.781049 0.000000
0.415765 0.801855 0.000000
0.465104 0.821969 0.000000
0.519404 0.840739 0.000000
0.580826 0.857949 0.000000
0.649080 0.873211 0.000000
0.728791 0.884213 0.000000
0.815001 0.893722 0.000000
0.905496 0.899023 0.000000
1.000000 0.900927 0.000000
0.000000 0.707737 0.000000
0.028633 0.709177 0.000000
0.057709 0.713304 0.000000
0.085984 0.719689 0.000000
0.115787 0.728791 0.000000
0.145212 0.739666 0.000000
0.175859 0.752405 0.000000
0.206936 0.766717 0.000000
0.240061 0.782537 0.000000
[...]
POINT_DATA 2205 
VECTORS pos float 
0.000000 0.000000 0.000000
0.102231 0.000000 0.000000
0.199948 0.000000 0.000000
0.292263 0.000000 0.000000
0.376282 0.000000 0.000000
0.449341 0.000000 0.000000
0.514406 0.000000 0.000000
0.571294 0.000000 0.000000
0.622482 0.000000 0.000000
0.669109 0.000000 0.000000
0.711034 0.000000 0.000000
0.749235 0.000000 0.000000
0.783403 0.000000 0.000000
0.815842 0.000000 0.000000
0.845603 0.000000 0.000000
0.873971 0.000000 0.000000
0.900927 0.000000 0.000000
0.926075 0.000000 0.000000
0.951403 0.000000 0.000000
0.975624 0.000000 0.000000
1.000000 0.000000 0.000000
0.000000 0.024376 0.000000
0.101733 0.024958 0.000000
0.198740 0.026137 0.000000
0.290823 0.028633 0.000000
0.374902 0.031615 0.000000
0.447562 0.035765 0.000000
0.512383 0.040484 0.000000
0.569104 0.045595 0.000000
0.620220 0.051233 0.000000
0.666661 0.057027 0.000000
0.708487 0.062953 0.000000
0.746575 0.068996 0.000000
0.780862 0.075110 0.000000
0.813199 0.080813 0.000000
0.843054 0.086021 0.000000
0.871536 0.090656 0.000000
0.899023 0.094504 0.000000
0.924457 0.097792 0.000000
0.950314 0.100201 0.000000
0.975042 0.101733 0.000000
1.000000 0.102231 0.000000
0.000000 0.048597 0.000000
0.100201 0.049686 0.000000
0.195874 0.052792 0.000000
0.286696 0.057709 0.000000
0.369740 0.063178 0.000000
0.441673 0.071497 0.000000
0.505938 0.080803 0.000000
0.562077 0.090809 0.000000
0.612629 0.101595 0.000000
0.658776 0.112796 0.000000
0.700439 0.124270 0.000000
0.738408 0.135812 0.000000
0.773033 0.147607 0.000000
0.805659 0.158684 0.000000
0.836077 0.168546 0.000000
0.865447 0.177458 0.000000
0.893722 0.184999 0.000000
0.920768 0.191421 0.000000
0.947208 0.195874 0.000000
0.973863 0.198740 0.000000
1.000000 0.199948 0.000000
0.000000 0.073925 0.000000
0.097792 0.075543 0.000000
0.191421 0.079232 0.000000
0.280311 0.085984 0.000000
0.362010 0.094795 0.000000
0.432466 0.106872 0.000000
0.495463 0.120380 0.000000
0.550732 0.135028 0.000000
0.600654 0.150700 0.000000
0.646238 0.166908 0.000000
0.687569 0.183757 0.000000
0.725163 0.200527 0.000000
0.759939 0.217463 0.000000
0.793064 0.233283 0.000000
0.824141 0.247595 0.000000
0.854788 0.260334 0.000000
0.884213 0.271209 0.000000
0.914016 0.280311 0.000000
0.942291 0.286696 0.000000
0.971367 0.290823 0.000000
1.000000 0.292263 0.000000
0.000000 0.099073 0.000000
0.094504 0.100977 0.000000
0.184999 0.106278 0.000000
0.271209 0.115787 0.000000
0.350920 0.126789 0.000000
0.419174 0.142051 0.000000
0.480596 0.159261 0.000000
0.534896 0.178031 0.000000
0.584235 0.198145 0.000000
0.629060 0.218951 0.000000
0.670031 0.240546 0.000000
0.707557 0.261962 0.000000
0.742697 0.283490 0.000000
0.776844 0.303197 0.000000
0.809227 0.321349 0.000000
0.841572 0.337256 0.000000
0.873211 0.350920 0.000000
0.905205 0.362010 0.000000
0.936822 0.369740 0.000000
0.968385 0.374902 0.000000
1.000000 0.376282 0.000000
0.000000 0.126029 0.000000
0.090656 0.128464 0.000000
0.177458 0.134553 0.000000
0.260334 0.145212 0.000000
0.337256 0.158428 0.000000
0.402868 0.176001 0.000000
0.462358 0.196025 0.000000
0.515593 0.217967 0.000000
0.564251 0.241353 0.000000
0.608048 0.265446 0.000000
0.648313 0.290451 0.000000
0.685665 0.315186 0.000000
0.720769 0.339918 0.000000
0.755773 0.362924 0.000000
0.789710 0.383999 0.000000
0.823999 0.402868 0.000000
0.857949 0.419174 0.000000
0.893128 0.432466 0.000000
0.928503 0.441673 0.000000
0.964235 0.447562 0.000000
1.000000 0.449341 0.000000
0.000000 0.154397 0.000000
0.086021 0.156946 0.000000
0.168546 0.163923 0.000000
0.247595 0.175859 0.000000
0.321349 0.190773 0.000000
0.383999 0.210290 0.000000
0.441239 0.232515 0.000000
0.492977 0.256941 0.000000
0.540529 0.282961 0.000000
0.583196 0.309774 0.000000
0.622883 0.337559 0.000000
0.660233 0.364981 0.000000
0.695632 0.392270 0.000000
0.731733 0.417826 0.000000
0.767485 0.441239 0.000000
0.803975 0.462358 0.000000
0.840739 0.480596 0.000000
0.879620 0.495463 0.000000
0.919197 0.505938 0.000000
0.959516 0.512383 0.000000
1.000000 0.514406 0.000000
0.000000 0.184158 0.000000
0.080813 0.186801 0.000000
0.158684 0.194341 0.000000
0.233283 0.206936 0.000000
0.303197 0.223156 0.000000
0.362924 0.244227 0.000000
0.417826 0.268267 0.000000
0.467803 0.294704 0.000000
0.514059 0.322816 0.000000
0.555606 0.351881 0.000000
0.594594 0.381921 0.000000
0.631893 0.411432 0.000000
0.667788 0.440436 0.000000
0.705296 0.467803 0.000000
0.743059 0.492977 0.000000
0.782033 0.515593 0.000000
0.821969 0.534896 0.000000
0.864972 0.550732 0.000000
0.909191 0.562077 0.000000
0.954405 0.569104 0.000000
1.000000 0.571294 0.000000
0.000000 0.216597 0.000000
0.075110 0.219138 0.000000
0.147607 0.226967 0.000000
0.217463 0.240061 0.000000
0.283490 0.257303 0.000000
0.339918 0.279231 0.000000
0.392270 0.304368 0.000000
0.440436 0.332212 0.000000
0.485603 0.361996 0.000000
0.525833 0.392661 0.000000
0.564141 0.424351 0.000000
0.601474 0.455417 0.000000
0.638004 0.485603 0.000000
0.677184 0.514059 0.000000
0.717039 0.540529 0.000000
0.758647 0.564251 0.000000
0.801855 0.584235 0.000000
0.849300 0.600654 0.000000
0.898405 0.612629 0.000000
0.948767 0.620220 0.000000
1.000000 0.622482 0.000000
0.000000 0.250765 0.000000
0.068996 0.253425 0.000000
0.135812 0.261592 0.000000
0.200527 0.274837 0.000000
0.261962 0.292443 0.000000
0.315186 0.314335 0.000000
0.364981 0.339767 0.000000
0.411432 0.368107 0.000000
0.455417 0.398526 0.000000
0.494676 0.429986 0.000000
0.532580 0.462488 0.000000
0.570014 0.494676 0.000000
0.607339 0.525833 0.000000
0.648119 0.555606 0.000000
0.690226 0.583196 0.000000
0.734554 0.608048 0.000000
0.781049 0.629060 0.000000
0.833092 0.646238 0.000000
0.887204 0.658776 0.000000
0.942973 0.666661 0.000000
1.000000 0.669109 0.000000
0.000000 0.288966 0.000000
0.062953 0.291513 0.000000
0.124270 0.299561 0.000000
0.183757 0.312431 0.000000
0.240546 0.329969 0.000000
0.290451 0.351687 0.000000
0.337559 0.377117 0.000000
0.381921 0.405406 0.000000
0.424351 0.435859 0.000000
0.462488 0.467420 0.000000
0.500000 0.500000 0.000000
0.537512 0.532580 0.000000
0.575649 0.564141 0.000000
0.618079 0.594594 0.000000
0.662441 0.622883 0.000000
0.709549 0.648313 0.000000
0.759454 0.670031 0.000000
0.816243 0.687569 0.000000
0.875730 0.700439 0.000000
0.937047 0.708487 0.000000
1.000000 0.711034 0.000000
0.000000 0.330891 0.000000
0.057027 0.333339 0.000000
0.112796 0.341224 0.000000
0.166908 0.353762 0.000000
0.218951 0.370940 0.000000
0.265446 0.391952 0.000000
0.309774 0.416804 0.000000
0.351881 0.444394 0.000000
0.392661 0.474167 0.000000
0.429986 0.505324 0.000000
0.467420 0.537512 0.000000
0.505324 0.570014 0.000000
0.544583 0.601474 0.000000
0.588568 0.631893 0.000000
0.635019 0.660233 0.000000
0.684814 0.685665 0.000000
0.738038 0.707557 0.000000
0.799473 0.725163 0.000000
0.864188 0.738408 0.000000
0.931004 0.746575 0.000000
1.000000 0.749235 0.000000
0.000000 0.377518 0.000000
0.051233 0.379780 0.000000
0.101595 0.387371 0.000000
0.150700 0.399346 0.000000
0.198145 0.415765 0.000000
0.241353 0.435749 0.000000
0.282961 0.459471 0.000000
0.322816 0.485941 0.000000
0.361996 0.514397 0.000000
0.398526 0.544583 0.000000
0.435859 0.575649 0.000000
0.474167 0.607339 0.000000
0.514397 0.638004 0.000000
0.559564 0.667788 0.000000
0.607730 0.695632 0.000000
0.660082 0.720769 0.000000
0.716510 0.742697 0.000000
0.782537 0.759939 0.000000
0.852393 0.773033 0.000000
0.924890 0.780862 0.000000
1.000000 0.783403 0.000000
0.000000 0.428706 0.000000
0.045595 0.430896 0.000000
0.090809 0.437923 0.000000
0.135028 0.449268 0.000000
0.178031 0.465104 0.000000
0.217967 0.484407 0.000000
0.256941 0.507023 0.000000
0.294704 0.532197 0.000000
0.332212 0.559564 0.000000
0.368107 0.588568 0.000000
0.405406 0.618079 0.000000
0.444394 0.648119 0.000000
0.485941 0.677184 0.000000
0.532197 0.705296 0.000000
0.582174 0.731733 0.000000
0.637076 0.755773 0.000000
0.696803 0.776844 0.000000
0.766717 0.793064 0.000000
0.841316 0.805659 0.000000
0.919187 0.813199 0.000000
1.000000 0.815842 0.000000
0.000000 0.485594 0.000000
0.040484 0.487617 0.000000
0.080803 0.494062 0.000000
0.120380 0.504537 0.000000
0.159261 0.519404 0.000000
0.196025 0.537642 0.000000
0.232515 0.558761 0.000000
0.268267 0.582174 0.000000
0.304368 0.607730 0.000000
0.339767 0.635019 0.000000
0.377117 0.662441 0.000000
0.416804 0.690226 0.000000
0.459471 0.717039 0.000000
0.507023 0.743059 0.000000
0.558761 0.767485 0.000000
0.616001 0.789710 0.000000
0.678651 0.809227 0.000000
0.752405 0.824141 0.000000
0.831454 0.836077 0.000000
0.913979 0.843054 0.000000
1.000000 0.845603 0.000000
0.000000 0.550659 0.000000
0.035765 0.552438 0.000000
0.071497 0.558327 0.000000
0.106872 0.567534 0.000000
0.142051 0.580826 0.000000
0.176001 0.597132 0.000000
0.210290 0.616001 0.000000
0.244227 0.637076 0.000000
0.279231 0.660082 0.000000
0.314335 0.684814 0.000000
0.351687 0.709549 0.000000
0.391952 0.734554 0.000000
0.435749 0.758647 0.000000
0.484407 0.782033 0.000000
0.537642 0.803975 0.000000
0.597132 0.823999 0.000000
0.662744 0.841572 0.000000
0.739666 0.854788 0.000000
0.822542 0.865447 0.000000
0.909344 0.871536 0.000000
1.000000 0.873971 0.000000
0.000000 0.623718 0.000000
0.031615 0.625098 0.000000
0.063178 0.630260 0.000000
0.094795 0.637990 0.000000
0.126789 0.649080 0.000000
0.158428 0.662744 0.000000
0.190773 0.678651 0.000000
0.223156 0.696803 0.000000
0.257303 0.716510 0.000000
0.292443 0.738038 0.000000
0.329969 0.759454 0.000000
0.370940 0.781049 0.000000
0.415765 0.801855 0.000000
0.465104 0.821969 0.000000
0.519404 0.840739 0.000000
0.580826 0.857949 0.000000
0.649080 0.873211 0.000000
0.728791 0.884213 0.000000
0.815001 0.893722 0.000000
0.905496 0.899023 0.000000
1.000000 0.900927 0.000000
0.000000 0.707737 0.000000
0.028633 0.709177 0.000000
0.057709 0.713304 0.000000
0.085984 0.719689 0.000000
0.115787 0.728791 0.000000
0.145212 0.739666 0.000000
0.175859 0.752405 0.000000
0.206936 0.766717 0.000000
0.240061 0.782537 0.000000
0.274837 0.799473 0.000000
0.312431 0.816243 0.000000
0.353762 0.833092 0.000000
0.399346 0.849300 0.000000
0.449268 0.864972 0.000000
0.504537 0.879620 0.000000
0.567534 0.893128 0.000000
0.637990 0.905205 0.000000
0.719689 0.914016 0.000000
0.808579 0.920768 0.000000
0.902208 0.924457 0.000000
1.000000 0.926075 0.000000
0.000000 0.800052 0.000000
0.026137 0.801260 0.000000
0.052792 0.804126 0.000000
0.079232 0.808579 0.000000
0.106278 0.815001 0.000000
0.134553 0.822542 0.000000
0.163923 0.831454 0.000000
0.194341 0.841316 0.000000
0.226967 0.852393 0.000000
0.261592 0.864188 0.000000
0.299561 0.875730 0.000000
0.341224 0.887204 0.000000
0.387371 0.898405 0.000000
0.437923 0.909191 0.000000
0.494062 0.919197 0.000000
0.558327 0.928503 0.000000
0.630260 0.936822 0.000000
0.713304 0.942291 0.000000
0.804126 0.947208 0.000000
0.899799 0.950314 0.000000
1.000000 0.951403 0.000000
0.000000 0.897769 0.000000
0.024958 0.898267 0.000000
0.049686 0.899799 0.000000
0.075543 0.902208 0.000000
0.100977 0.905496 0.000000
0.128464 0.909344 0.000000
0.156946 0.913979 0.000000
0.186801 0.919187 0.000000
0.219138 0.924890 0.000000
0.253425 0.931004 0.000000
0.291513 0.937047 0.000000
0.333339 0.942973 0.000000
0.379780 0.948767 0.000000
0.430896 0.954405 0.000000
0.487617 0.959516 0.000000
0.552438 0.964235 0.000000
0.625098 0.968385 0.000000
0.709177 0.971367 0.000000
0.801260 0.973863 0.000000
0.898267 0.975042 0.000000
1.000000 0.975624 0.000000
0.000000 1.000000 0.000000
0.024376 1.000000 0.000000
0.048597 1.000000 0.000000
0.073925 1.000000 0.000000
0.099073 1.000000 0.000000
0.126029 1.000000 0.000000
0.154397 1.000000 0.000000
0.184158 1.000000 0.000000
0.216597 1.000000 0.000000
0.250765 1.000000 0.000000
0.288966 1.000000 0.000000
0.330891 1.000000 0.000000
0.377518 1.000000 0.000000
0.428706 1.000000 0.000000
0.485594 1.000000 0.000000
0.550659 1.000000 0.000000
0.623718 1.000000 0.000000
0.707737 1.000000 0.000000
0.800052 1.000000 0.000000
0.897769 1.000000 0.000000
1.000000 1.000000 0.000000
0.000000 0.000000 0.082500
0.102231 0.000000 0.082500
0.199948 0.000000 0.082500
0.292263 0.000000 0.082500
0.376282 0.000000 0.082500
0.449341 0.000000 0.082500
0.514406 0.000000 0.082500
0.571294 0.000000 0.082500
0.622482 0.000000 0.082500
0.669109 0.000000 0.082500
0.711034 0.000000 0.082500
0.749235 0.000000 0.082500
0.783403 0.000000 0.082500
0.815842 0.000000 0.082500
0.845603 0.000000 0.082500
0.873971 0.000000 0.082500
0.900927 0.000000 0.082500
0.926075 0.000000 0.082500
0.951403 0.000000 0.082500
0.975624 0.000000 0.082500
1.000000 0.000000 0.082500
0.000000 0.024376 0.082500
0.101733 0.024958 0.082500
0.198740 0.026137 0.082500
0.290823 0.028633 0.082500
0.374902 0.031615 0.082500
0.447562 0.035765 0.082500
0.512383 0.040484 0.082500
0.569104 0.045595 0.082500
0.620220 0.051233 0.082500
0.666661 0.057027 0.082500
0.708487 0.062953 0.082500
0.746575 0.068996 0.082500
0.780862 0.075110 0.082500
0.813199 0.080813 0.082500
0.843054 0.086021 0.082500
0.871536 0.090656 0.082500
0.899023 0.094504 0.082500
0.924457 0.097792 0.082500
0.950314 0.100201 0.082500
0.975042 0.101733 0.082500
1.000000 0.102231 0.082500
0.000000 0.048597 0.082500
0.100201 0.049686 0.082500
0.195874 0.052792 0.082500
0.286696 0.057709 0.082500
0.369740 0.063178 0.082500
0.441673 0.071497 0.082500
0.505938 0.080803 0.082500
0.562077 0.090809 0.082500
0.612629 0.101595 0.082500
0.658776 0.112796 0.082500
0.700439 0.124270 0.082500
0.738408 0.135812 0.082500
0.773033 0.147607 0.082500
0.805659 0.158684 0.082500
0.836077 0.168546 0.082500
0.865447 0.177458 0.082500
0.893722 0.184999 0.082500
0.920768 0.191421 0.082500
0.947208 0.195874 0.082500
0.973863 0.198740 0.082500
1.000000 0.199948 0.082500
0.000000 0.073925 0.082500
0.097792 0.075543 0.082500
0.191421 0.079232 0.082500
0.280311 0.085984 0.082500
0.362010 0.094795 0.082500
0.432466 0.106872 0.082500
0.495463 0.120380 0.082500
0.550732 0.135028 0.082500
0.600654 0.150700 0.082500
0.646238 0.166908 0.082500
0.687569 0.183757 0.082500
0.725163 0.200527 0.082500
0.759939 0.217463 0.082500
0.793064 0.233283 0.082500
0.824141 0.247595 0.082500
0.854788 0.260334 0.082500
0.884213 0.271209 0.082500
0.914016 0.280311 0.082500
0.942291 0.286696 0.082500
0.971367 0.290823 0.082500
1.000000 0.292263 0.082500
0.000000 0.099073 0.082500
0.094504 0.100977 0.082500
0.184999 0.106278 0.082500
0.271209 0.115787 0.082500
0.350920 0.126789 0.082500
0.419174 0.142051 0.082500
0.480596 0.159261 0.082500
0.534896 0.178031 0.082500
0.584235 0.198145 0.082500
0.629060 0.218951 0.082500
0.670031 0.240546 0.082500
0.707557 0.261962 0.082500
0.742697 0.283490 0.082500
0.776844 0.303197 0.082500
0.809227 0.321349 0.082500
0.841572 0.337256 0.082500
0.873211 0.350920 0.082500
0.905205 0.362010 0.082500
0.936822 0.369740 0.082500
0.968385 0.374902 0.082500
1.000000 0.376282 0.082500
0.000000 0.126029 0.082500
0.090656 0.128464 0.082500
0.177458 0.134553 0.082500
0.260334 0.145212 0.082500
0.337256 0.158428 0.082500
0.402868 0.176001 0.082500
0.462358 0.196025 0.082500
0.515593 0.217967 0.082500
0.564251 0.241353 0.082500
0.608048 0.265446 0.082500
0.648313 0.290451 0.082500
0.685665 0.315186 0.082500
0.720769 0.339918 0.082500
0.755773 0.362924 0.082500
0.789710 0.383999 0.082500
0.823999 0.402868 0.082500
0.857949 0.419174 0.082500
0.893128 0.432466 0.082500
0.928503 0.441673 0.082500
0.964235 0.447562 0.082500
1.000000 0.449341 0.082500
0.000000 0.154397 0.082500
0.086021 0.156946 0.082500
0.168546 0.163923 0.082500
0.247595 0.175859 0.082500
0.321349 0.190773 0.082500
0.383999 0.210290 0.082500
0.441239 0.232515 0.082500
0.492977 0.256941 0.082500
0.540529 0.282961 0.082500
0.583196 0.309774 0.082500
0.622883 0.337559 0.082500
0.660233 0.364981 0.082500
0.695632 0.392270 0.082500
0.731733 0.417826 0.082500
0.767485 0.441239 0.082500
0.803975 0.462358 0.082500
0.840739 0.480596 0.082500
0.879620 0.495463 0.082500
0.919197 0.505938 0.082500
0.959516 0.512383 0.082500
1.000000 0.514406 0.082500
0.000000 0.184158 0.082500
0.080813 0.186801 0.082500
0.158684 0.194341 0.082500
0.233283 0.206936 0.082500
0.303197 0.223156 0.082500
0.362924 0.244227 0.082500
0.417826 0.268267 0.082500
0.467803 0.294704 0.082500
0.514059 0.322816 0.082500
0.555606 0.351881 0.082500
0.594594 0.381921 0.082500
0.631893 0.411432 0.082500
0.667788 0.440436 0.082500
0.705296 0.467803 0.082500
0.743059 0.492977 0.082500
0.782033 0.515593 0.082500
0.821969 0.534896 0.082500
0.864972 0.550732 0.082500
0.909191 0.562077 0.082500
0.954405 0.569104 0.082500
1.000000 0.571294 0.082500
0.000000 0.216597 0.082500
0.075110 0.219138 0.082500
0.147607 0.226967 0.082500
0.217463 0.240061 0.082500
0.283490 0.257303 0.082500
0.339918 0.279231 0.082500
0.392270 0.304368 0.082500
0.440436 0.332212 0.082500
0.485603 0.361996 0.082500
0.525833 0.392661 0.082500
0.564141 0.424351 0.082500
0.601474 0.455417 0.082500
0.638004 0.485603 0.082500
0.677184 0.514059 0.082500
0.717039 0.540529 0.082500
0.758647 0.564251 0.082500
0.801855 0.584235 0.082500
0.849300 0.600654 0.082500
0.898405 0.612629 0.082500
0.948767 0.620220 0.082500
1.000000 0.622482 0.082500
0.000000 0.250765 0.082500
0.068996 0.253425 0.082500
0.135812 0.261592 0.082500
0.200527 0.274837 0.082500
0.261962 0.292443 0.082500
0.315186 0.314335 0.082500
0.364981 0.339767 0.082500
0.411432 0.368107 0.082500
0.455417 0.398526 0.082500
0.494676 0.429986 0.082500
0.532580 0.462488 0.082500
0.570014 0.494676 0.082500
0.607339 0.525833 0.082500
0.648119 0.555606 0.082500
0.690226 0.583196 0.082500
0.734554 0.608048 0.082500
0.781049 0.629060 0.082500
0.833092 0.646238 0.082500
0.887204 0.658776 0.082500
0.942973 0.666661 0.082500
1.000000 0.669109 0.082500
0.000000 0.288966 0.082500
0.062953 0.291513 0.082500
0.124270 0.299561 0.082500
0.183757 0.312431 0.082500
0.240546 0.329969 0.082500
0.290451 0.351687 0.082500
0.337559 0.377117 0.082500
0.381921 0.405406 0.082500
0.424351 0.435859 0.082500
0.462488 0.467420 0.082500
0.500000 0.500000 0.082500
0.537512 0.532580 0.082500
0.575649 0.564141 0.082500
0.618079 0.594594 0.082500
0.662441 0.622883 0.082500
0.709549 0.648313 0.082500
0.759454 0.670031 0.082500
0.816243 0.687569 0.082500
0.875730 0.700439 0.082500
0.937047 0.708487 0.082500
1.000000 0.711034 0.082500
0.000000 0.330891 0.082500
0.057027 0.333339 0.082500
0.112796 0.341224 0.082500
0.166908 0.353762 0.082500
0.218951 0.370940 0.082500
0.265446 0.391952 0.082500
0.309774 0.416804 0.082500
0.351881 0.444394 0.082500
0.392661 0.474167 0.082500
0.429986 0.505324 0.082500
0.467420 0.537512 0.082500
0.505324 0.570014 0.082500
0.544583 0.601474 0.082500
0.588568 0.631893 0.082500
0.635019 0.660233 0.082500
0.684814 0.685665 0.082500
0.738038 0.707557 0.082500
0.799473 0.725163 0.082500
0.864188 0.738408 0.082500
0.931004 0.746575 0.082500
1.000000 0.749235 0.082500
0.000000 0.377518 0.082500
0.051233 0.379780 0.082500
0.101595 0.387371 0.082500
0.150700 0.399346 0.082500
0.198145 0.415765 0.082500
0.241353 0.435749 0.082500
0.282961 0.459471 0.082500
0.322816 0.485941 0.082500
0.361996 0.514397 0.082500
0.398526 0.544583 0.082500
0.435859 0.575649 0.082500
0.474167 0.607339 0.082500
0.514397 0.638004 0.082500
0.559564 0.667788 0.082500
0.607730 0.695632 0.082500
0.660082 0.720769 0.082500
0.716510 0.742697 0.082500
0.782537 0.759939 0.082500
0.852393 0.773033 0.082500
0.924890 0.780862 0.082500
1.000000 0.783403 0.082500
0.000000 0.428706 0.082500
0.045595 0.430896 0.082500
0.090809 0.437923 0.082500
0.135028 0.449268 0.082500
0.178031 0.465104 0.082500
0.217967 0.484407 0.082500
0.256941 0.507023 0.082500
0.294704 0.532197 0.082500
0.332212 0.559564 0.082500
0.368107 0.588568 0.082500
0.405406 0.618079 0.082500
0.444394 0.648119 0.082500
0.485941 0.677184 0.082500
0.532197 0.705296 0.082500
0.582174 0.731733 0.082500
0.637076 0.755773 0.082500
0.696803 0.776844 0.082500
0.766717 0.793064 0.082500
0.841316 0.805659 0.082500
0.919187 0.813199 0.082500
1.000000 0.815842 0.082500
0.000000 0.485594 0.082500
0.040484 0.487617 0.082500
0.080803 0.494062 0.082500
0.120380 0.504537 0.082500