# vtk DataFile Version 2.0
Mesh for Fierro
ASCII 
DATASET UNSTRUCTURED_GRID

POINTS 2205 float
0.000000 0.000000 0.000000
0.381304 0.000000 0.000000
0.606153 0.000000 0.000000
0.715603 0.000000 0.000000
0.783297 0.000000 0.000000
0.824471 0.000000 0.000000
0.855975 0.000000 0.000000
0.879750 0.000000 0.000000
0.897647 0.000000 0.000000
0.912633 0.000000 0.000000
0.925502 0.000000 0.000000
0.936328 0.000000 0.000000
0.945501 0.000000 0.000000
0.953823 0.000000 0.000000
0.961394 0.000000 0.000000
0.968532 0.000000 0.000000
0.975049 0.000000 0.000000
0.981417 0.000000 0.000000
0.987597 0.000000 0.000000
0.993828 0.000000 0.000000
1.000000 0.000000 0.000000
0.000000 0.006172 0.000000
0.378696 0.007939 0.000000
0.602840 0.016681 0.000000
0.711905 0.028533 0.000000
0.778590 0.049064 0.000000
0.821395 0.069607 0.000000
0.853604 0.092385 0.000000
0.875868 0.120741 0.000000
0.892854 0.150883 0.000000
0.906824 0.180521 0.000000
0.918665 0.209018 0.000000
0.928881 0.237709 0.000000
0.937568 0.266641 0.000000
0.945728 0.292367 0.000000
0.953497 0.314403 0.000000
0.961248 0.333819 0.000000
0.968847 0.348994 0.000000
0.976516 0.361575 0.000000
0.984180 0.371626 0.000000
0.992061 0.378696 0.000000
1.000000 0.381304 0.000000
0.000000 0.012403 0.000000
0.371626 0.015820 0.000000
0.594864 0.032542 0.000000
0.704843 0.055639 0.000000
0.770086 0.094257 0.000000
0.813743 0.131592 0.000000
0.843715 0.178250 0.000000
0.862970 0.228520 0.000000
0.876500 0.280543 0.000000
0.886766 0.328393 0.000000
0.894949 0.373990 0.000000
0.901550 0.417288 0.000000
0.906803 0.458071 0.000000
0.912744 0.492937 0.000000
0.919956 0.522266 0.000000
0.929023 0.547334 0.000000
0.940071 0.566990 0.000000
0.953014 0.582988 0.000000
0.967458 0.594864 0.000000
0.983319 0.602840 0.000000
1.000000 0.606153 0.000000
0.000000 0.018583 0.000000
0.361575 0.023484 0.000000
0.582988 0.046986 0.000000
0.692112 0.079786 0.000000
0.753515 0.130893 0.000000
0.796764 0.180613 0.000000
0.821005 0.242469 0.000000
0.835963 0.303335 0.000000
0.842980 0.366525 0.000000
0.848308 0.420361 0.000000
0.850711 0.472047 0.000000
0.852498 0.518807 0.000000
0.854127 0.561821 0.000000
0.859376 0.598502 0.000000
0.868220 0.629483 0.000000
0.881288 0.655548 0.000000
0.898163 0.676449 0.000000
0.920214 0.692112 0.000000
0.944361 0.704843 0.000000
0.971467 0.711905 0.000000
1.000000 0.715603 0.000000
0.000000 0.024951 0.000000
0.348994 0.031153 0.000000
0.566990 0.059929 0.000000
0.676449 0.101837 0.000000
0.735933 0.163719 0.000000
0.776822 0.223937 0.000000
0.793410 0.297827 0.000000
0.803248 0.363860 0.000000
0.801765 0.432475 0.000000
0.801890 0.487694 0.000000
0.797257 0.540335 0.000000
0.793742 0.585516 0.000000
0.790555 0.625032 0.000000
0.793457 0.658278 0.000000
0.801194 0.687489 0.000000
0.815702 0.713058 0.000000
0.836281 0.735933 0.000000
0.869107 0.753515 0.000000
0.905743 0.770086 0.000000
0.950936 0.778590 0.000000
1.000000 0.783297 0.000000
0.000000 0.031468 0.000000
0.333819 0.038752 0.000000
0.547334 0.070977 0.000000
0.655548 0.118712 0.000000
0.713058 0.184298 0.000000
0.751099 0.250965 0.000000
0.761209 0.324677 0.000000
0.766825 0.392149 0.000000
0.759188 0.457597 0.000000
0.753993 0.512613 0.000000
0.743455 0.563301 0.000000
0.733343 0.608283 0.000000
0.724114 0.649099 0.000000
0.723403 0.686990 0.000000
0.731200 0.721027 0.000000
0.749035 0.751099 0.000000
0.776063 0.776822 0.000000
0.819387 0.796764 0.000000
0.868408 0.813743 0.000000
0.930393 0.821395 0.000000
1.000000 0.824471 0.000000
0.000000 0.038606 0.000000
0.314403 0.046503 0.000000
0.522266 0.080044 0.000000
0.629483 0.131780 0.000000
0.687489 0.198806 0.000000
0.721027 0.268800 0.000000
0.726831 0.340859 0.000000
0.727607 0.408279 0.000000
0.714763 0.470472 0.000000
0.704479 0.523999 0.000000
0.688058 0.571796 0.000000
0.673076 0.614359 0.000000
0.659278 0.653099 0.000000
0.655005 0.690929 0.000000
0.659141 0.726831 0.000000
0.675323 0.761209 0.000000
0.702173 0.793410 0.000000
0.757531 0.821005 0.000000
0.821750 0.843715 0.000000
0.907615 0.853604 0.000000
1.000000 0.855975 0.000000
0.000000 0.046177 0.000000
0.292367 0.054272 0.000000
0.492937 0.087256 0.000000
0.598502 0.140624 0.000000
0.658278 0.206543 0.000000
0.686990 0.276597 0.000000
0.690929 0.344995 0.000000
0.687340 0.410468 0.000000
0.671438 0.468839 0.000000
0.656185 0.520151 0.000000
0.635197 0.565079 0.000000
0.615432 0.606702 0.000000
0.597059 0.645979 0.000000
0.589532 0.687340 0.000000
0.591721 0.727607 0.000000
0.607851 0.766825 0.000000
0.636140 0.803248 0.000000
0.696665 0.835963 0.000000
0.771480 0.862970 0.000000
0.879259 0.875868 0.000000
1.000000 0.879750 0.000000
0.000000 0.054499 0.000000
0.266641 0.062432 0.000000
0.458071 0.093197 0.000000
0.561821 0.145873 0.000000
0.625032 0.209445 0.000000
0.649099 0.275886 0.000000
0.653099 0.340722 0.000000
0.645979 0.402941 0.000000
0.628209 0.458566 0.000000
0.608584 0.507189 0.000000
0.584110 0.549407 0.000000
0.561906 0.589513 0.000000
0.541434 0.628209 0.000000
0.531161 0.671438 0.000000
0.529528 0.714763 0.000000
0.542403 0.759188 0.000000
0.567525 0.801765 0.000000
0.633475 0.842980 0.000000
0.719457 0.876500 0.000000
0.849117 0.892854 0.000000
1.000000 0.897647 0.000000
0.000000 0.063672 0.000000
0.237709 0.071119 0.000000
0.417288 0.098450 0.000000
0.518807 0.147502 0.000000
0.585516 0.206258 0.000000
0.608283 0.266657 0.000000
0.614359 0.326924 0.000000
0.606702 0.384568 0.000000
0.589513 0.438094 0.000000
0.567232 0.484453 0.000000
0.540867 0.526150 0.000000
0.515547 0.567232 0.000000
0.492811 0.608584 0.000000
0.479849 0.656185 0.000000
0.476001 0.704479 0.000000
0.487387 0.753993 0.000000
0.512306 0.801890 0.000000
0.579639 0.848308 0.000000
0.671607 0.886766 0.000000
0.819479 0.906824 0.000000
1.000000 0.912633 0.000000
0.000000 0.074498 0.000000
0.209018 0.081335 0.000000
0.373990 0.105051 0.000000
0.472047 0.149289 0.000000
0.540335 0.202743 0.000000
0.563301 0.256545 0.000000
0.571796 0.311942 0.000000
0.565079 0.364803 0.000000
0.549407 0.415890 0.000000
0.526150 0.459133 0.000000
0.500000 0.500000 0.000000
0.473850 0.540867 0.000000
0.450593 0.584110 0.000000
0.434921 0.635197 0.000000
0.428204 0.688058 0.000000
0.436699 0.743455 0.000000
0.459665 0.797257 0.000000
0.527953 0.850711 0.000000
0.626010 0.894949 0.000000
0.790982 0.918665 0.000000
1.000000 0.925502 0.000000
0.000000 0.087367 0.000000
0.180521 0.093176 0.000000
0.328393 0.113234 0.000000
0.420361 0.151692 0.000000
0.487694 0.198110 0.000000
0.512613 0.246007 0.000000
0.523999 0.295521 0.000000
0.520151 0.343815 0.000000
0.507189 0.391416 0.000000
0.484453 0.432768 0.000000
0.459133 0.473850 0.000000
0.432768 0.515547 0.000000
0.410487 0.561906 0.000000
0.393298 0.615432 0.000000
0.385641 0.673076 0.000000
0.391717 0.733343 0.000000
0.414484 0.793742 0.000000
0.481193 0.852498 0.000000
0.582712 0.901550 0.000000
0.762291 0.928881 0.000000
1.000000 0.936328 0.000000
0.000000 0.102353 0.000000
0.150883 0.107146 0.000000
0.280543 0.123500 0.000000
0.366525 0.157020 0.000000
0.432475 0.198235 0.000000
0.457597 0.240812 0.000000
0.470472 0.285237 0.000000
0.468839 0.328562 0.000000
0.458566 0.371791 0.000000
0.438094 0.410487 0.000000
0.415890 0.450593 0.000000
0.391416 0.492811 0.000000
0.371791 0.541434 0.000000
0.354021 0.597059 0.000000
0.346901 0.659278 0.000000
0.350901 0.724114 0.000000
0.374968 0.790555 0.000000
0.438179 0.854127 0.000000
0.541929 0.906803 0.000000
0.733359 0.937568 0.000000
1.000000 0.945501 0.000000
0.000000 0.120250 0.000000
0.120741 0.124132 0.000000
0.228520 0.137030 0.000000
0.303335 0.164037 0.000000
0.363860 0.196752 0.000000
0.392149 0.233175 0.000000
0.408279 0.272393 0.000000
0.410468 0.312660 0.000000
0.402941 0.354021 0.000000
0.384568 0.393298 0.000000
0.364803 0.434921 0.000000
0.343815 0.479849 0.000000
0.328562 0.531161 0.000000
0.312660 0.589532 0.000000
0.309071 0.655005 0.000000
0.313010 0.723403 0.000000
0.341722 0.793457 0.000000
0.401498 0.859376 0.000000
0.507063 0.912744 0.000000
0.707633 0.945728 0.000000
1.000000 0.953823 0.000000
0.000000 0.144025 0.000000
0.092385 0.146396 0.000000
0.178250 0.156285 0.000000
0.242469 0.178995 0.000000
0.297827 0.206590 0.000000
0.324677 0.238791 0.000000
0.340859 0.273169 0.000000
0.344995 0.309071 0.000000
0.340722 0.346901 0.000000
0.326924 0.385641 0.000000
0.311942 0.428204 0.000000
0.295521 0.476001 0.000000
0.285237 0.529528 0.000000
0.272393 0.591721 0.000000
0.273169 0.659141 0.000000
0.278973 0.731200 0.000000
0.312511 0.801194 0.000000
0.370517 0.868220 0.000000
0.477734 0.919956 0.000000
0.685597 0.953497 0.000000
1.000000 0.961394 0.000000
0.000000 0.175529 0.000000
0.069607 0.178605 0.000000
0.131592 0.186257 0.000000
0.180613 0.203236 0.000000
0.223937 0.223178 0.000000
0.250965 0.248901 0.000000
0.268800 0.278973 0.000000
0.276597 0.313010 0.000000
0.275886 0.350901 0.000000
0.266657 0.391717 0.000000
0.256545 0.436699 0.000000
0.246007 0.487387 0.000000
0.240812 0.542403 0.000000
0.233175 0.607851 0.000000
0.238791 0.675323 0.000000
0.248901 0.749035 0.000000
0.286942 0.815702 0.000000
0.344452 0.881288 0.000000
0.452666 0.929023 0.000000
0.666181 0.961248 0.000000
1.000000 0.968532 0.000000
0.000000 0.216703 0.000000
0.049064 0.221410 0.000000
0.094257 0.229914 0.000000
0.130893 0.246485 0.000000
0.163719 0.264067 0.000000
0.184298 0.286942 0.000000
0.198806 0.312511 0.000000
0.206543 0.341722 0.000000
0.209445 0.374968 0.000000
0.206258 0.414484 0.000000
0.202743 0.459665 0.000000
0.198110 0.512306 0.000000
0.198235 0.567525 0.000000
0.196752 0.636140 0.000000
0.206590 0.702173 0.000000
0.223178 0.776063 0.000000
0.264067 0.836281 0.000000
0.323551 0.898163 0.000000
0.433010 0.940071 0.000000
0.651006 0.968847 0.000000
1.000000 0.975049 0.000000
0.000000 0.284397 0.000000
0.028533 0.288095 0.000000
0.055639 0.295157 0.000000
0.079786 0.307888 0.000000
0.101837 0.323551 0.000000
0.118712 0.344452 0.000000
0.131780 0.370517 0.000000
0.140624 0.401498 0.000000
0.145873 0.438179 0.000000
[...]
POINT_DATA 2205 
VECTORS pos float 
0.000000 0.000000 0.000000
0.381304 0.000000 0.000000
0.606153 0.000000 0.000000
0.715603 0.000000 0.000000
0.783297 0.000000 0.000000
0.824471 0.000000 0.000000
0.855975 0.000000 0.000000
0.879750 0.000000 0.000000
0.897647 0.000000 0.000000
0.912633 0.000000 0.000000
0.925502 0.000000 0.000000
0.936328 0.000000 0.000000
0.945501 0.000000 0.000000
0.953823 0.000000 0.000000
0.961394 0.000000 0.000000
0.968532 0.000000 0.000000
0.975049 0.000000 0.000000
0.981417 0.000000 0.000000
0.987597 0.000000 0.000000
0.993828 0.000000 0.000000
1.000000 0.000000 0.000000
0.000000 0.006172 0.000000
0.378696 0.007939 0.000000
0.602840 0.016681 0.000000
0.711905 0.028533 0.000000
0.778590 0.049064 0.000000
0.821395 0.069607 0.000000
0.853604 0.092385 0.000000
0.875868 0.120741 0.000000
0.892854 0.150883 0.000000
0.906824 0.180521 0.000000
0.918665 0.209018 0.000000
0.928881 0.237709 0.000000
0.937568 0.266641 0.000000
0.945728 0.292367 0.000000
0.953497 0.314403 0.000000
0.961248 0.333819 0.000000
0.968847 0.348994 0.000000
0.976516 0.361575 0.000000
0.984180 0.371626 0.000000
0.992061 0.378696 0.000000
1.000000 0.381304 0.000000
0.000000 0.012403 0.000000
0.371626 0.015820 0.000000
0.594864 0.032542 0.000000
0.704843 0.055639 0.000000
0.770086 0.094257 0.000000
0.813743 0.131592 0.000000
0.843715 0.178250 0.000000
0.862970 0.228520 0.000000
0.876500 0.280543 0.000000
0.886766 0.328393 0.000000
0.894949 0.373990 0.000000
0.901550 0.417288 0.000000
0.906803 0.458071 0.000000
0.912744 0.492937 0.000000
0.919956 0.522266 0.000000
0.929023 0.547334 0.000000
0.940071 0.566990 0.000000
0.953014 0.582988 0.000000
0.967458 0.594864 0.000000
0.983319 0.602840 0.000000
1.000000 0.606153 0.000000
0.000000 0.018583 0.000000
0.361575 0.023484 0.000000
0.582988 0.046986 0.000000
0.692112 0.079786 0.000000
0.753515 0.130893 0.000000
0.796764 0.180613 0.000000
0.821005 0.242469 0.000000
0.835963 0.303335 0.000000
0.842980 0.366525 0.000000
0.848308 0.420361 0.000000
0.850711 0.472047 0.000000
0.852498 0.518807 0.000000
0.854127 0.561821 0.000000
0.859376 0.598502 0.000000
0.868220 0.629483 0.000000
0.881288 0.655548 0.000000
0.898163 0.676449 0.000000
0.920214 0.692112 0.000000
0.944361 0.704843 0.000000
0.971467 0.711905 0.000000
1.000000 0.715603 0.000000
0.000000 0.024951 0.000000
0.348994 0.031153 0.000000
0.566990 0.059929 0.000000
0.676449 0.101837 0.000000
0.735933 0.163719 0.000000
0.776822 0.223937 0.000000
0.793410 0.297827 0.000000
0.803248 0.363860 0.000000
0.801765 0.432475 0.000000
0.801890 0.487694 0.000000
0.797257 0.540335 0.000000
0.793742 0.585516 0.000000
0.790555 0.625032 0.000000
0.793457 0.658278 0.000000
0.801194 0.687489 0.000000
0.815702 0.713058 0.000000
0.836281 0.735933 0.000000
0.869107 0.753515 0.000000
0.905743 0.770086 0.000000
0.950936 0.778590 0.000000
1.000000 0.783297 0.000000
0.000000 0.031468 0.000000
0.333819 0.038752 0.000000
0.547334 0.070977 0.000000
0.655548 0.118712 0.000000
0.713058 0.184298 0.000000
0.751099 0.250965 0.000000
0.761209 0.324677 0.000000
0.766825 0.392149 0.000000
0.759188 0.457597 0.000000
0.753993 0.512613 0.000000
0.743455 0.563301 0.000000
0.733343 0.608283 0.000000
0.724114 0.649099 0.000000
0.723403 0.686990 0.000000
0.731200 0.721027 0.000000
0.749035 0.751099 0.000000
0.776063 0.776822 0.000000
0.819387 0.796764 0.000000
0.868408 0.813743 0.000000
0.930393 0.821395 0.000000
1.000000 0.824471 0.000000
0.000000 0.038606 0.000000
0.314403 0.046503 0.000000
0.522266 0.080044 0.000000
0.629483 0.131780 0.000000
0.687489 0.198806 0.000000
0.721027 0.268800 0.000000
0.726831 0.340859 0.000000
0.727607 0.408279 0.000000
0.714763 0.470472 0.000000
0.704479 0.523999 0.000000
0.688058 0.571796 0.000000
0.673076 0.614359 0.000000
0.659278 0.653099 0.000000
0.655005 0.690929 0.000000
0.659141 0.726831 0.000000
0.675323 0.761209 0.000000
0.702173 0.793410 0.000000
0.757531 0.821005 0.000000
0.821750 0.843715 0.000000
0.907615 0.853604 0.000000
1.000000 0.855975 0.000000
0.000000 0.046177 0.000000
0.292367 0.054272 0.000000
0.492937 0.087256 0.000000
0.598502 0.140624 0.000000
0.658278 0.206543 0.000000
0.686990 0.276597 0.000000
0.690929 0.344995 0.000000
0.687340 0.410468 0.000000
0.671438 0.468839 0.000000
0.656185 0.520151 0.000000
0.635197 0.565079 0.000000
0.615432 0.606702 0.000000
0.597059 0.645979 0.000000
0.589532 0.687340 0.000000
0.591721 0.727607 0.000000
0.607851 0.766825 0.000000
0.636140 0.803248 0.000000
0.696665 0.835963 0.000000
0.771480 0.862970 0.000000
0.879259 0.875868 0.000000
1.000000 0.879750 0.000000
0.000000 0.054499 0.000000
0.266641 0.062432 0.000000
0.458071 0.093197 0.000000
0.561821 0.145873 0.000000
0.625032 0.209445 0.000000
0.649099 0.275886 0.000000
0.653099 0.340722 0.000000
0.645979 0.402941 0.000000
0.628209 0.458566 0.000000
0.608584 0.507189 0.000000
0.584110 0.549407 0.000000
0.561906 0.589513 0.000000
0.541434 0.628209 0.000000
0.531161 0.671438 0.000000
0.529528 0.714763 0.000000
0.542403 0.759188 0.000000
0.567525 0.801765 0.000000
0.633475 0.842980 0.000000
0.719457 0.876500 0.000000
0.849117 0.892854 0.000000
1.000000 0.897647 0.000000
0.000000 0.063672 0.000000
0.237709 0.071119 0.000000
0.417288 0.098450 0.000000
0.518807 0.147502 0.000000
0.585516 0.206258 0.000000
0.608283 0.266657 0.000000
0.614359 0.326924 0.000000
0.606702 0.384568 0.000000
0.589513 0.438094 0.000000
0.567232 0.484453 0.000000
0.540867 0.526150 0.000000
0.515547 0.567232 0.000000
0.492811 0.608584 0.000000
0.479849 0.656185 0.000000
0.476001 0.704479 0.000000
0.487387 0.753993 0.000000
0.512306 0.801890 0.000000
0.579639 0.848308 0.000000
0.671607 0.886766 0.000000
0.819479 0.906824 0.000000
1.000000 0.912633 0.000000
0.000000 0.074498 0.000000
0.209018 0.081335 0.000000
0.373990 0.105051 0.000000
0.472047 0.149289 0.000000
0.540335 0.202743 0.000000
0.563301 0.256545 0.000000
0.571796 0.311942 0.000000
0.565079 0.364803 0.000000
0.549407 0.415890 0.000000
0.526150 0.459133 0.000000
0.500000 0.500000 0.000000
0.473850 0.540867 0.000000
0.450593 0.584110 0.000000
0.434921 0.635197 0.000000
0.428204 0.688058 0.000000
0.436699 0.743455 0.000000
0.459665 0.797257 0.000000
0.527953 0.850711 0.000000
0.626010 0.894949 0.000000
0.790982 0.918665 0.000000
1.000000 0.925502 0.000000
0.000000 0.087367 0.000000
0.180521 0.093176 0.000000
0.328393 0.113234 0.000000
0.420361 0.151692 0.000000
0.487694 0.198110 0.000000
0.512613 0.246007 0.000000
0.523999 0.295521 0.000000
0.520151 0.343815 0.000000
0.507189 0.391416 0.000000
0.484453 0.432768 0.000000
0.459133 0.473850 0.000000
0.432768 0.515547 0.000000
0.410487 0.561906 0.000000
0.393298 0.615432 0.000000
0.385641 0.673076 0.000000
0.391717 0.733343 0.000000
0.414484 0.793742 0.000000
0.481193 0.852498 0.000000
0.582712 0.901550 0.000000
0.762291 0.928881 0.000000
1.000000 0.936328 0.000000
0.000000 0.102353 0.000000
0.150883 0.107146 0.000000
0.280543 0.123500 0.000000
0.366525 0.157020 0.000000
0.432475 0.198235 0.000000
0.457597 0.240812 0.000000
0.470472 0.285237 0.000000
0.468839 0.328562 0.000000
0.458566 0.371791 0.000000
0.438094 0.410487 0.000000
0.415890 0.450593 0.000000
0.391416 0.492811 0.000000
0.371791 0.541434 0.000000
0.354021 0.597059 0.000000
0.346901 0.659278 0.000000
0.350901 0.724114 0.000000
0.374968 0.790555 0.000000
0.438179 0.854127 0.000000
0.541929 0.906803 0.000000
0.733359 0.937568 0.000000
1.000000 0.945501 0.000000
0.000000 0.120250 0.000000
0.120741 0.124132 0.000000
0.228520 0.137030 0.000000
0.303335 0.164037 0.000000
0.363860 0.196752 0.000000
0.392149 0.233175 0.000000
0.408279 0.272393 0.000000
0.410468 0.312660 0.000000
0.402941 0.354021 0.000000
0.384568 0.393298 0.000000
0.364803 0.434921 0.000000
0.343815 0.479849 0.000000
0.328562 0.531161 0.000000
0.312660 0.589532 0.000000
0.309071 0.655005 0.000000
0.313010 0.723403 0.000000
0.341722 0.793457 0.000000
0.401498 0.859376 0.000000
0.507063 0.912744 0.000000
0.707633 0.945728 0.000000
1.000000 0.953823 0.000000
0.000000 0.144025 0.000000
0.092385 0.146396 0.000000
0.178250 0.156285 0.000000
0.242469 0.178995 0.000000
0.297827 0.206590 0.000000
0.324677 0.238791 0.000000
0.340859 0.273169 0.000000
0.344995 0.309071 0.000000
0.340722 0.346901 0.000000
0.326924 0.385641 0.000000
0.311942 0.428204 0.000000
0.295521 0.476001 0.000000
0.285237 0.529528 0.000000
0.272393 0.591721 0.000000
0.273169 0.659141 0.000000
0.278973 0.731200 0.000000
0.312511 0.801194 0.000000
0.370517 0.868220 0.000000
0.477734 0.919956 0.000000
0.685597 0.953497 0.000000
1.000000 0.961394 0.000000
0.000000 0.175529 0.000000
0.069607 0.178605 0.000000
0.131592 0.186257 0.000000
0.180613 0.203236 0.000000
0.223937 0.223178 0.000000
0.250965 0.248901 0.000000
0.268800 0.278973 0.000000
0.276597 0.313010 0.000000
0.275886 0.350901 0.000000
0.266657 0.391717 0.000000
0.256545 0.436699 0.000000
0.246007 0.487387 0.000000
0.240812 0.542403 0.000000
0.233175 0.607851 0.000000
0.238791 0.675323 0.000000
0.248901 0.749035 0.000000
0.286942 0.815702 0.000000
0.344452 0.881288 0.000000
0.452666 0.929023 0.000000
0.666181 0.961248 0.000000
1.000000 0.968532 0.000000
0.000000 0.216703 0.000000
0.049064 0.221410 0.000000
0.094257 0.229914 0.000000
0.130893 0.246485 0.000000
0.163719 0.264067 0.000000
0.184298 0.286942 0.000000
0.198806 0.312511 0.000000
0.206543 0.341722 0.000000
0.209445 0.374968 0.000000
0.206258 0.414484 0.000000
0.202743 0.459665 0.000000
0.198110 0.512306 0.000000
0.198235 0.567525 0.000000
0.196752 0.636140 0.000000
0.206590 0.702173 0.000000
0.223178 0.776063 0.000000
0.264067 0.836281 0.000000
0.323551 0.898163 0.000000
0.433010 0.940071 0.000000
0.651006 0.968847 0.000000
1.000000 0.975049 0.000000
0.000000 0.284397 0.000000
0.028533 0.288095 0.000000
0.055639 0.295157 0.000000
0.079786 0.307888 0.000000
0.101837 0.323551 0.000000
0.118712 0.344452 0.000000
0.131780 0.370517 0.000000
0.140624 0.401498 0.000000
0.145873 0.438179 0.000000
0.147502 0.481193 0.000000
0.149289 0.527953 0.000000
0.151692 0.579639 0.000000
0.157020 0.633475 0.000000
0.164037 0.696665 0.000000
0.178995 0.757531 0.000000
0.203236 0.819387 0.000000
0.246485 0.869107 0.000000
0.307888 0.920214 0.000000
0.417012 0.953014 0.000000
0.638425 0.976516 0.000000
1.000000 0.981417 0.000000
0.000000 0.393847 0.000000
0.016681 0.397160 0.000000
0.032542 0.405136 0.000000
0.046986 0.417012 0.000000
0.059929 0.433010 0.000000
0.070977 0.452666 0.000000
0.080044 0.477734 0.000000
0.087256 0.507063 0.000000
0.093197 0.541929 0.000000
0.098450 0.582712 0.000000
0.105051 0.626010 0.000000
0.113234 0.671607 0.000000
0.123500 0.719457 0.000000
0.137030 0.771480 0.000000
0.156285 0.821750 0.000000
0.186257 0.868408 0.000000
0.229914 0.905743 0.000000
0.295157 0.944361 0.000000
0.405136 0.967458 0.000000
0.628374 0.984180 0.000000
1.000000 0.987597 0.000000
0.000000 0.618696 0.000000
0.007939 0.621304 0.000000
0.015820 0.628374 0.000000
0.023484 0.638425 0.000000
0.031153 0.651006 0.000000
0.038752 0.666181 0.000000
0.046503 0.685597 0.000000
0.054272 0.707633 0.000000
0.062432 0.733359 0.000000
0.071119 0.762291 0.000000
0.081335 0.790982 0.000000
0.093176 0.819479 0.000000
0.107146 0.849117 0.000000
0.124132 0.879259 0.000000
0.146396 0.907615 0.000000
0.178605 0.930393 0.000000
0.221410 0.950936 0.000000
0.288095 0.971467 0.000000
0.397160 0.983319 0.000000
0.621304 0.992061 0.000000
1.000000 0.993828 0.000000
0.000000 1.000000 0.000000
0.006172 1.000000 0.000000
0.012403 1.000000 0.000000
0.018583 1.000000 0.000000
0.024951 1.000000 0.000000
0.031468 1.000000 0.000000
0.038606 1.000000 0.000000
0.046177 1.000000 0.000000
0.054499 1.000000 0.000000
0.063672 1.000000 0.000000
0.074498 1.000000 0.000000
0.087367 1.000000 0.000000
0.102353 1.000000 0.000000
0.120250 1.000000 0.000000
0.144025 1.000000 0.000000
0.175529 1.000000 0.000000
0.216703 1.000000 0.000000
0.284397 1.000000 0.000000
0.393847 1.000000 0.000000
0.618696 1.000000 0.000000
1.000000 1.000000 0.000000
0.000000 0.000000 0.082500
0.381304 0.000000 0.082500
0.606153 0.000000 0.082500
0.715603 0.000000 0.082500
0.783297 0.000000 0.082500
0.824471 0.000000 0.082500
0.855975 0.000000 0.082500
0.879750 0.000000 0.082500
0.897647 0.000000 0.082500
0.912633 0.000000 0.082500
0.925502 0.000000 0.082500
0.936328 0.000000 0.082500
0.945501 0.000000 0.082500
0.953823 0.000000 0.082500
0.961394 0.000000 0.082500
0.968532 0.000000 0.082500
0.975049 0.000000 0.082500
0.981417 0.000000 0.082500
0.987597 0.000000 0.082500
0.993828 0.000000 0.082500
1.000000 0.000000 0.082500
0.000000 0.006172 0.082500
0.378696 0.007939 0.082500
0.602840 0.016681 0.082500
0.711905 0.028533 0.082500
0.778590 0.049064 0.082500
0.821395 0.069607 0.082500
0.853604 0.092385 0.082500
0.875868 0.120741 0.082500
0.892854 0.150883 0.082500
0.906824 0.180521 0.082500
0.918665 0.209018 0.082500
0.928881 0.237709 0.082500
0.937568 0.266641 0.082500
0.945728 0.292367 0.082500
0.953497 0.314403 0.082500
0.961248 0.333819 0.082500
0.968847 0.348994 0.082500
0.976516 0.361575 0.082500
0.984180 0.371626 0.082500
0.992061 0.378696 0.082500
1.000000 0.381304 0.082500
0.000000 0.012403 0.082500
0.371626 0.015820 0.082500
0.594864 0.032542 0.082500
0.704843 0.055639 0.082500
0.770086 0.094257 0.082500
0.813743 0.131592 0.082500
0.843715 0.178250 0.082500
0.862970 0.228520 0.082500
0.876500 0.280543 0.082500
0.886766 0.328393 0.082500
0.894949 0.373990 0.082500
0.901550 0.417288 0.082500
0.906803 0.458071 0.082500
0.912744 0.492937 0.082500
0.919956 0.522266 0.082500
0.929023 0.547334 0.082500
0.940071 0.566990 0.082500
0.953014 0.582988 0.082500
0.967458 0.594864 0.082500
0.983319 0.602840 0.082500
1.000000 0.606153 0.082500
0.000000 0.018583 0.082500
0.361575 0.023484 0.082500
0.582988 0.046986 0.082500
0.692112 0.079786 0.082500
0.753515 0.130893 0.082500
0.796764 0.180613 0.082500
0.821005 0.242469 0.082500
0.835963 0.303335 0.082500
0.842980 0.366525 0.082500
0.848308 0.420361 0.082500
0.850711 0.472047 0.082500
0.852498 0.518807 0.082500
0.854127 0.561821 0.082500
0.859376 0.598502 0.082500
0.868220 0.629483 0.082500
0.881288 0.655548 0.082500
0.898163 0.676449 0.082500
0.920214 0.692112 0.082500
0.944361 0.704843 0.082500
0.971467 0.711905 0.082500
1.000000 0.715603 0.082500
0.000000 0.024951 0.082500
0.348994 0.031153 0.082500
0.566990 0.059929 0.082500
0.676449 0.101837 0.082500
0.735933 0.163719 0.082500
0.776822 0.223937 0.082500
0.793410 0.297827 0.082500
0.803248 0.363860 0.082500
0.801765 0.432475 0.082500
0.801890 0.487694 0.082500
0.797257 0.540335 0.082500
0.793742 0.585516 0.082500
0.790555 0.625032 0.082500
0.793457 0.658278 0.082500
0.801194 0.687489 0.082500
0.815702 0.713058 0.082500
0.836281 0.735933 0.082500
0.869107 0.753515 0.082500
0.905743 0.770086 0.082500
0.950936 0.778590 0.082500
1.000000 0.783297 0.082500
0.000000 0.031468 0.082500
0.333819 0.038752 0.082500
0.547334 0.070977 0.082500
0.655548 0.118712 0.082500
0.713058 0.184298 0.082500
0.751099 0.250965 0.082500
0.761209 0.324677 0.082500
0.766825 0.392149 0.082500
0.759188 0.457597 0.082500
0.753993 0.512613 0.082500
0.743455 0.563301 0.082500
0.733343 0.608283 0.082500
0.724114 0.649099 0.082500
0.723403 0.686990 0.082500
0.731200 0.721027 0.082500
0.749035 0.751099 0.082500
0.776063 0.776822 0.082500
0.819387 0.796764 0.082500
0.868408 0.813743 0.082500
0.930393 0.821395 0.082500
1.000000 0.824471 0.082500
0.000000 0.038606 0.082500
0.314403 0.046503 0.082500
0.522266 0.080044 0.082500
0.629483 0.131780 0.082500
0.687489 0.198806 0.082500
0.721027 0.268800 0.082500
0.726831 0.340859 0.082500
0.727607 0.408279 0.082500
0.714763 0.470472 0.082500
0.704479 0.523999 0.082500
0.688058 0.571796 0.082500
0.673076 0.614359 0.082500
0.659278 0.653099 0.082500
0.655005 0.690929 0.082500
0.659141 0.726831 0.082500
0.675323 0.761209 0.082500
0.702173 0.793410 0.082500
0.757531 0.821005 0.082500
0.821750 0.843715 0.082500
0.907615 0.853604 0.082500
1.000000 0.855975 0.082500
0.000000 0.046177 0.082500
0.292367 0.054272 0.082500
0.492937 0.087256 0.082500
0.598502 0.140624 0.082500
0.658278 0.206543 0.082500
0.686990 0.276597 0.082500
0.690929 0.344995 0.082500
0.687340 0.410468 0.082500
0.671438 0.468839 0.082500
0.656185 0.520151 0.082500
0.635197 0.565079 0.082500
0.615432 0.606702 0.082500
0.597059 0.645979 0.082500
0.589532 0.687340 0.082500
0.591721 0.727607 0.082500
0.607851 0.766825 0.082500
0.636140 0.803248 0.082500
0.696665 0.835963 0.082500
0.771480 0.862970 0.082500
0.879259 0.875868 0.082500
1.000000 0.879750 0.082500
0.000000 0.054499 0.082500
0.266641 0.062432 0.082500
0.458071 0.093197 0.082500
0.561821 0.145873 0.082500
0.625032 0.209445 0.082500
0.649099 0.275886 0.082500
0.653099 0.340722 0.082500
0.645979 0.402941 0.082500
0.628209 0.458566 0.082500
0.608584 0.507189 0.082500
0.584110 0.549407 0.082500
0.561906 0.589513 0.082500
0.541434 0.628209 0.082500
0.531161 0.671438 0.082500
0.529528 0.714763 0.082500
0.542403 0.759188 0.082500
0.567525 0.801765 0.082500
0.633475 0.842980 0.082500
0.719457 0.876500 0.082500
0.849117 0.892854 0.082500
1.000000 0.897647 0.082500
0.000000 0.063672 0.082500
0.237709 0.071119 0.082500
0.417288 0.098450 0.082500
0.518807 0.147502 0.082500
0.585516 0.206258 0.082500
0.608283 0.266657 0.082500
0.614359 0.326924 0.082500
0.606702 0.384568 0.082500
0.589513 0.438094 0.082500
0.567232 0.484453 0.082500
0.540867 0.526150 0.082500
0.515547 0.567232 0.082500
0.492811 0.608584 0.082500
0.479849 0.656185 0.082500
0.476001 0.704479 0.082500
0.487387 0.753993 0.082500
0.512306 0.801890 0.082500
0.579639 0.848308 0.082500
0.671607 0.886766 0.082500
0.819479 0.906824 0.082500
1.000000 0.912633 0.082500
0.000000 0.074498 0.082500
0.209018 0.081335 0.082500
0.373990 0.105051 0.082500
0.472047 0.149289 0.082500
0.540335 0.202743 0.082500
0.563301 0.256545 0.082500
0.571796 0.311942 0.082500
0.565079 0.364803 0.082500
0.549407 0.415890 0.082500
0.526150 0.459133 0.082500
0.500000 0.500000 0.082500
0.473850 0.540867 0.082500
0.450593 0.584110 0.082500
0.434921 0.635197 0.082500
0.428204 0.688058 0.082500
0.436699 0.743455 0.082500
0.459665 0.797257 0.082500
0.527953 0.850711 0.082500
0.626010 0.894949 0.082500
0.790982 0.918665 0.082500
1.000000 0.925502 0.082500
0.000000 0.087367 0.082500
0.180521 0.093176 0.082500
0.328393 0.113234 0.082500
0.420361 0.151692 0.082500
0.487694 0.198110 0.082500
0.512613 0.246007 0.082500
0.523999 0.295521 0.082500
0.520151 0.343815 0.082500
0.507189 0.391416 0.082500
0.484453 0.432768 0.082500
0.459133 0.473850 0.082500
0.432768 0.515547 0.082500
0.410487 0.561906 0.082500
0.393298 0.615432 0.082500
0.385641 0.673076 0.082500
0.391717 0.733343 0.082500
0.414484 0.793742 0.082500
0.481193 0.852498 0.082500
0.582712 0.901550 0.082500
0.762291 0.928881 0.082500
1.000000 0.936328 0.082500
0.000000 0.102353 0.082500
0.150883 0.107146 0.082500
0.280543 0.123500 0.082500
0.366525 0.157020 0.082500
0.432475 0.198235 0.082500
0.457597 0.240812 0.082500
0.470472 0.285237 0.082500
0.468839 0.328562 0.082500
0.458566 0.371791 0.082500
0.438094 0.410487 0.082500
0.415890 0.450593 0.082500
0.391416 0.492811 0.082500
0.371791 0.541434 0.082500
0.354021 0.597059 0.082500
0.346901 0.659278 0.082500
0.350901 0.724114 0.082500
0.374968 0.790555 0.082500
0.438179 0.854127 0.082500
0.541929 0.906803 0.082500
0.733359 0.937568 0.082500
1.000000 0.945501 0.082500
0.000000 0.120250 0.082500
0.120741 0.124132 0.082500
0.228520 0.137030 0.082500
0.303335 0.164037 0.082500
0.363860 0.196752 0.082500
0.392149 0.233175 0.082500
0.408279 0.272393 0.082500
0.410468 0.312660 0.082500
0.402941 0.354021 0.082500
0.384568 0.393298 0.082500
0.364803 0.434921 0.082500
0.343815 0.479849 0.082500
0.328562 0.531161 0.082500
0.312660 0.589532 0.082500
0.309071 0.655005 0.082500
0.313010 0.723403 0.082500
0.341722 0.793457 0.082500
0.401498 0.859376 0.082500
0.507063 0.912744 0.082500
0.707633 0.945728 0.082500
1.000000 0.953823 0.082500
0.000000 0.144025 0.082500
0.092385 0.146396 0.082500
0.178250 0.156285 0.082500
0.242469 0.178995 0.082500