# vtk DataFile Version 2.0
Mesh for Fierro
ASCII 
DATASET UNSTRUCTURED_GRID

POINTS 2205 float
0.000000 0.000000 0.000000
0.514039 0.000000 0.000000
0.749921 0.000000 0.000000
0.818643 0.000000 0.000000
0.866085 0.000000 0.000000
0.891583 0.000000 0.000000
0.910703 0.000000 0.000000
0.926172 0.000000 0.000000
0.937742 0.000000 0.000000
0.946948 0.000000 0.000000
0.954543 0.000000 0.000000
0.960783 0.000000 0.000000
0.966115 0.000000 0.000000
0.970693 0.000000 0.000000
0.974898 0.000000 0.000000
0.978964 0.000000 0.000000
0.982889 0.000000 0.000000
0.986953 0.000000 0.000000
0.991127 0.000000 0.000000
0.995502 0.000000 0.000000
1.000000 0.000000 0.000000
0.000000 0.004498 0.000000
0.511681 0.006934 0.000000
0.744254 0.023677 0.000000
0.815037 0.042550 0.000000
0.861933 0.077224 0.000000
0.886932 0.112417 0.000000
0.905532 0.146570 0.000000
0.918468 0.189188 0.000000
0.927858 0.234297 0.000000
0.935352 0.276384 0.000000
0.941703 0.315811 0.000000
0.947412 0.353764 0.000000
0.952451 0.390815 0.000000
0.957477 0.422066 0.000000
0.962547 0.448248 0.000000
0.967887 0.470122 0.000000
0.973581 0.486103 0.000000
0.979812 0.497705 0.000000
0.986315 0.505587 0.000000
0.993066 0.511681 0.000000
1.000000 0.514039 0.000000
0.000000 0.008873 0.000000
0.505587 0.013685 0.000000
0.733669 0.044991 0.000000
0.808638 0.080671 0.000000
0.851394 0.145553 0.000000
0.876271 0.204833 0.000000
0.892044 0.272316 0.000000
0.900412 0.343655 0.000000
0.903835 0.412024 0.000000
0.905753 0.468014 0.000000
0.906141 0.517579 0.000000
0.904907 0.561275 0.000000
0.902619 0.599715 0.000000
0.902371 0.631835 0.000000
0.905068 0.658642 0.000000
0.911361 0.681960 0.000000
0.922098 0.701121 0.000000
0.937161 0.718115 0.000000
0.955009 0.733669 0.000000
0.976323 0.744254 0.000000
1.000000 0.749921 0.000000
0.000000 0.013047 0.000000
0.497705 0.020188 0.000000
0.718115 0.062839 0.000000
0.797681 0.111916 0.000000
0.833484 0.198296 0.000000
0.857659 0.269004 0.000000
0.866970 0.351947 0.000000
0.866484 0.428285 0.000000
0.858748 0.497894 0.000000
0.852176 0.552320 0.000000
0.842210 0.602498 0.000000
0.832723 0.645986 0.000000
0.824292 0.685401 0.000000
0.823000 0.718556 0.000000
0.828332 0.746095 0.000000
0.841082 0.768315 0.000000
0.860713 0.785103 0.000000
0.888084 0.797681 0.000000
0.919329 0.808638 0.000000
0.957450 0.815037 0.000000
1.000000 0.818643 0.000000
0.000000 0.017111 0.000000
0.486103 0.026419 0.000000
0.701121 0.077902 0.000000
0.785103 0.139287 0.000000
0.811582 0.239993 0.000000
0.836119 0.318744 0.000000
0.833460 0.412514 0.000000
0.823574 0.486040 0.000000
0.804597 0.553523 0.000000
0.788589 0.605867 0.000000
0.768402 0.650967 0.000000
0.752431 0.686739 0.000000
0.737455 0.715445 0.000000
0.730885 0.740348 0.000000
0.730961 0.763904 0.000000
0.740053 0.787967 0.000000
0.760007 0.811582 0.000000
0.801704 0.833484 0.000000
0.854447 0.851394 0.000000
0.922776 0.861933 0.000000
1.000000 0.866085 0.000000
0.000000 0.021036 0.000000
0.470122 0.032113 0.000000
0.681960 0.088639 0.000000
0.768315 0.158918 0.000000
0.787967 0.259947 0.000000
0.811382 0.345093 0.000000
0.799426 0.432752 0.000000
0.782905 0.503343 0.000000
0.757046 0.564085 0.000000
0.732788 0.612746 0.000000
0.704574 0.654139 0.000000
0.677327 0.689915 0.000000
0.652151 0.722020 0.000000
0.640268 0.753918 0.000000
0.640197 0.783742 0.000000
0.654907 0.811382 0.000000
0.681256 0.836119 0.000000
0.730996 0.857659 0.000000
0.795167 0.876271 0.000000
0.887583 0.886932 0.000000
1.000000 0.891583 0.000000
0.000000 0.025102 0.000000
0.448248 0.037453 0.000000
0.658642 0.094932 0.000000
0.746095 0.171668 0.000000
0.763904 0.269039 0.000000
0.783742 0.359803 0.000000
0.764378 0.439538 0.000000
0.742499 0.507381 0.000000
0.709265 0.562394 0.000000
0.679261 0.607033 0.000000
0.644965 0.643565 0.000000
0.614337 0.674963 0.000000
0.586372 0.702514 0.000000
0.569076 0.732969 0.000000
0.560462 0.764378 0.000000
0.567248 0.799426 0.000000
0.587486 0.833460 0.000000
0.648053 0.866970 0.000000
0.727684 0.892044 0.000000
0.853430 0.905532 0.000000
1.000000 0.910703 0.000000
0.000000 0.029307 0.000000
0.422066 0.042523 0.000000
0.631835 0.097629 0.000000
0.718556 0.177000 0.000000
0.740348 0.269115 0.000000
0.753918 0.359732 0.000000
0.732969 0.430924 0.000000
0.706409 0.495672 0.000000
0.669640 0.544017 0.000000
0.635174 0.584938 0.000000
0.596856 0.616888 0.000000
0.560279 0.645454 0.000000
0.526422 0.672520 0.000000
0.504328 0.706409 0.000000
0.492619 0.742499 0.000000
0.496657 0.782905 0.000000
0.513960 0.823574 0.000000
0.571715 0.866484 0.000000
0.656345 0.900412 0.000000
0.810812 0.918468 0.000000
1.000000 0.926172 0.000000
0.000000 0.033885 0.000000
0.390815 0.047549 0.000000
0.599715 0.097381 0.000000
0.685401 0.175708 0.000000
0.715445 0.262545 0.000000
0.722020 0.347849 0.000000
0.702514 0.413628 0.000000
0.672520 0.473578 0.000000
0.633313 0.517691 0.000000
0.595507 0.554662 0.000000
0.554705 0.581885 0.000000
0.517576 0.607991 0.000000
0.482309 0.633313 0.000000
0.455983 0.669640 0.000000
0.437606 0.709265 0.000000
0.435915 0.757046 0.000000
0.446477 0.804597 0.000000
0.502106 0.858748 0.000000
0.587976 0.903835 0.000000
0.765703 0.927858 0.000000
1.000000 0.937742 0.000000
0.000000 0.039217 0.000000
0.353764 0.052588 0.000000
0.561275 0.095093 0.000000
0.645986 0.167277 0.000000
0.686739 0.247569 0.000000
0.689915 0.322673 0.000000
0.674963 0.385663 0.000000
0.645454 0.439721 0.000000
0.607991 0.482424 0.000000
0.567879 0.516082 0.000000
0.525242 0.541961 0.000000
0.483918 0.567879 0.000000
0.445338 0.595507 0.000000
0.415062 0.635174 0.000000
0.392967 0.679261 0.000000
0.387254 0.732788 0.000000
0.394133 0.788589 0.000000
0.447680 0.852176 0.000000
0.531986 0.905753 0.000000
0.723616 0.935352 0.000000
1.000000 0.946948 0.000000
0.000000 0.045457 0.000000
0.315811 0.058297 0.000000
0.517579 0.093859 0.000000
0.602498 0.157790 0.000000
0.650967 0.231598 0.000000
0.654139 0.295426 0.000000
0.643565 0.355035 0.000000
0.616888 0.403144 0.000000
0.581885 0.445295 0.000000
0.541961 0.474758 0.000000
0.500000 0.500000 0.000000
0.458039 0.525242 0.000000
0.418115 0.554705 0.000000
0.383112 0.596856 0.000000
0.356435 0.644965 0.000000
0.345861 0.704574 0.000000
0.349033 0.768402 0.000000
0.397502 0.842210 0.000000
0.482421 0.906141 0.000000
0.684189 0.941703 0.000000
1.000000 0.954543 0.000000
0.000000 0.053052 0.000000
0.276384 0.064648 0.000000
0.468014 0.094247 0.000000
0.552320 0.147824 0.000000
0.605867 0.211411 0.000000
0.612746 0.267212 0.000000
0.607033 0.320739 0.000000
0.584938 0.364826 0.000000
0.554662 0.404493 0.000000
0.516082 0.432121 0.000000
0.474758 0.458039 0.000000
0.432121 0.483918 0.000000
0.392009 0.517576 0.000000
0.354546 0.560279 0.000000
0.325037 0.614337 0.000000
0.310085 0.677327 0.000000
0.313261 0.752431 0.000000
0.354014 0.832723 0.000000
0.438725 0.904907 0.000000
0.646236 0.947412 0.000000
1.000000 0.960783 0.000000
0.000000 0.062258 0.000000
0.234297 0.072142 0.000000
0.412024 0.096165 0.000000
0.497894 0.141252 0.000000
0.553523 0.195403 0.000000
0.564085 0.242954 0.000000
0.562394 0.290735 0.000000
0.544017 0.330360 0.000000
0.517691 0.366687 0.000000
0.482424 0.392009 0.000000
0.445295 0.418115 0.000000
0.404493 0.445338 0.000000
0.366687 0.482309 0.000000
0.327480 0.526422 0.000000
0.297486 0.586372 0.000000
0.277980 0.652151 0.000000
0.284555 0.737455 0.000000
0.314599 0.824292 0.000000
0.400285 0.902619 0.000000
0.609185 0.952451 0.000000
1.000000 0.966115 0.000000
0.000000 0.073828 0.000000
0.189188 0.081532 0.000000
0.343655 0.099588 0.000000
0.428285 0.133516 0.000000
0.486040 0.176426 0.000000
0.503343 0.217095 0.000000
0.507381 0.257501 0.000000
0.495672 0.293591 0.000000
0.473578 0.327480 0.000000
0.439721 0.354546 0.000000
0.403144 0.383112 0.000000
0.364826 0.415062 0.000000
0.330360 0.455983 0.000000
0.293591 0.504328 0.000000
0.267031 0.569076 0.000000
0.246082 0.640268 0.000000
0.259652 0.730885 0.000000
0.281444 0.823000 0.000000
0.368165 0.902371 0.000000
0.577934 0.957477 0.000000
1.000000 0.970693 0.000000
0.000000 0.089297 0.000000
0.146570 0.094468 0.000000
0.272316 0.107956 0.000000
0.351947 0.133030 0.000000
0.412514 0.166540 0.000000
0.432752 0.200574 0.000000
0.439538 0.235622 0.000000
0.430924 0.267031 0.000000
0.413628 0.297486 0.000000
0.385663 0.325037 0.000000
0.355035 0.356435 0.000000
0.320739 0.392967 0.000000
0.290735 0.437606 0.000000
0.257501 0.492619 0.000000
0.235622 0.560462 0.000000
0.216258 0.640197 0.000000
0.236096 0.730961 0.000000
0.253905 0.828332 0.000000
0.341358 0.905068 0.000000
0.551752 0.962547 0.000000
1.000000 0.974898 0.000000
0.000000 0.108417 0.000000
0.112417 0.113068 0.000000
0.204833 0.123729 0.000000
0.269004 0.142341 0.000000
0.318744 0.163881 0.000000
0.345093 0.188618 0.000000
0.359803 0.216258 0.000000
0.359732 0.246082 0.000000
0.347849 0.277980 0.000000
0.322673 0.310085 0.000000
0.295426 0.345861 0.000000
0.267212 0.387254 0.000000
0.242954 0.435915 0.000000
0.217095 0.496657 0.000000
0.200574 0.567248 0.000000
0.188618 0.654907 0.000000
0.212033 0.740053 0.000000
0.231685 0.841082 0.000000
0.318040 0.911361 0.000000
0.529878 0.967887 0.000000
1.000000 0.978964 0.000000
0.000000 0.133915 0.000000
0.077224 0.138067 0.000000
0.145553 0.148606 0.000000
0.198296 0.166516 0.000000
0.239993 0.188418 0.000000
0.259947 0.212033 0.000000
0.269039 0.236096 0.000000
0.269115 0.259652 0.000000
0.262545 0.284555 0.000000
0.247569 0.313261 0.000000
0.231598 0.349033 0.000000
0.211411 0.394133 0.000000
0.195403 0.446477 0.000000
0.176426 0.513960 0.000000
0.166540 0.587486 0.000000
0.163881 0.681256 0.000000
0.188418 0.760007 0.000000
0.214897 0.860713 0.000000
0.298879 0.922098 0.000000
0.513897 0.973581 0.000000
1.000000 0.982889 0.000000
0.000000 0.181357 0.000000
0.042550 0.184963 0.000000
0.080671 0.191362 0.000000
0.111916 0.202319 0.000000
0.139287 0.214897 0.000000
0.158918 0.231685 0.000000
0.171668 0.253905 0.000000
0.177000 0.281444 0.000000
0.175708 0.314599 0.000000
[...]
POINT_DATA 2205 
VECTORS pos float 
0.000000 0.000000 0.000000
0.514039 0.000000 0.000000
0.749921 0.000000 0.000000
0.818643 0.000000 0.000000
0.866085 0.000000 0.000000
0.891583 0.000000 0.000000
0.910703 0.000000 0.000000
0.926172 0.000000 0.000000
0.937742 0.000000 0.000000
0.946948 0.000000 0.000000
0.954543 0.000000 0.000000
0.960783 0.000000 0.000000
0.966115 0.000000 0.000000
0.970693 0.000000 0.000000
0.974898 0.000000 0.000000
0.978964 0.000000 0.000000
0.982889 0.000000 0.000000
0.986953 0.000000 0.000000
0.991127 0.000000 0.000000
0.995502 0.000000 0.000000
1.000000 0.000000 0.000000
0.000000 0.004498 0.000000
0.511681 0.006934 0.000000
0.744254 0.023677 0.000000
0.815037 0.042550 0.000000
0.861933 0.077224 0.000000
0.886932 0.112417 0.000000
0.905532 0.146570 0.000000
0.918468 0.189188 0.000000
0.927858 0.234297 0.000000
0.935352 0.276384 0.000000
0.941703 0.315811 0.000000
0.947412 0.353764 0.000000
0.952451 0.390815 0.000000
0.957477 0.422066 0.000000
0.962547 0.448248 0.000000
0.967887 0.470122 0.000000
0.973581 0.486103 0.000000
0.979812 0.497705 0.000000
0.986315 0.505587 0.000000
0.993066 0.511681 0.000000
1.000000 0.514039 0.000000
0.000000 0.008873 0.000000
0.505587 0.013685 0.000000
0.733669 0.044991 0.000000
0.808638 0.080671 0.000000
0.851394 0.145553 0.000000
0.876271 0.204833 0.000000
0.892044 0.272316 0.000000
0.900412 0.343655 0.000000
0.903835 0.412024 0.000000
0.905753 0.468014 0.000000
0.906141 0.517579 0.000000
0.904907 0.561275 0.000000
0.902619 0.599715 0.000000
0.902371 0.631835 0.000000
0.905068 0.658642 0.000000
0.911361 0.681960 0.000000
0.922098 0.701121 0.000000
0.937161 0.718115 0.000000
0.955009 0.733669 0.000000
0.976323 0.744254 0.000000
1.000000 0.749921 0.000000
0.000000 0.013047 0.000000
0.497705 0.020188 0.000000
0.718115 0.062839 0.000000
0.797681 0.111916 0.000000
0.833484 0.198296 0.000000
0.857659 0.269004 0.000000
0.866970 0.351947 0.000000
0.866484 0.428285 0.000000
0.858748 0.497894 0.000000
0.852176 0.552320 0.000000
0.842210 0.602498 0.000000
0.832723 0.645986 0.000000
0.824292 0.685401 0.000000
0.823000 0.718556 0.000000
0.828332 0.746095 0.000000
0.841082 0.768315 0.000000
0.860713 0.785103 0.000000
0.888084 0.797681 0.000000
0.919329 0.808638 0.000000
0.957450 0.815037 0.000000
1.000000 0.818643 0.000000
0.000000 0.017111 0.000000
0.486103 0.026419 0.000000
0.701121 0.077902 0.000000
0.785103 0.139287 0.000000
0.811582 0.239993 0.000000
0.836119 0.318744 0.000000
0.833460 0.412514 0.000000
0.823574 0.486040 0.000000
0.804597 0.553523 0.000000
0.788589 0.605867 0.000000
0.768402 0.650967 0.000000
0.752431 0.686739 0.000000
0.737455 0.715445 0.000000
0.730885 0.740348 0.000000
0.730961 0.763904 0.000000
0.740053 0.787967 0.000000
0.760007 0.811582 0.000000
0.801704 0.833484 0.000000
0.854447 0.851394 0.000000
0.922776 0.861933 0.000000
1.000000 0.866085 0.000000
0.000000 0.021036 0.000000
0.470122 0.032113 0.000000
0.681960 0.088639 0.000000
0.768315 0.158918 0.000000
0.787967 0.259947 0.000000
0.811382 0.345093 0.000000
0.799426 0.432752 0.000000
0.782905 0.503343 0.000000
0.757046 0.564085 0.000000
0.732788 0.612746 0.000000
0.704574 0.654139 0.000000
0.677327 0.689915 0.000000
0.652151 0.722020 0.000000
0.640268 0.753918 0.000000
0.640197 0.783742 0.000000
0.654907 0.811382 0.000000
0.681256 0.836119 0.000000
0.730996 0.857659 0.000000
0.795167 0.876271 0.000000
0.887583 0.886932 0.000000
1.000000 0.891583 0.000000
0.000000 0.025102 0.000000
0.448248 0.037453 0.000000
0.658642 0.094932 0.000000
0.746095 0.171668 0.000000
0.763904 0.269039 0.000000
0.783742 0.359803 0.000000
0.764378 0.439538 0.000000
0.742499 0.507381 0.000000
0.709265 0.562394 0.000000
0.679261 0.607033 0.000000
0.644965 0.643565 0.000000
0.614337 0.674963 0.000000
0.586372 0.702514 0.000000
0.569076 0.732969 0.000000
0.560462 0.764378 0.000000
0.567248 0.799426 0.000000
0.587486 0.833460 0.000000
0.648053 0.866970 0.000000
0.727684 0.892044 0.000000
0.853430 0.905532 0.000000
1.000000 0.910703 0.000000
0.000000 0.029307 0.000000
0.422066 0.042523 0.000000
0.631835 0.097629 0.000000
0.718556 0.177000 0.000000
0.740348 0.269115 0.000000
0.753918 0.359732 0.000000
0.732969 0.430924 0.000000
0.706409 0.495672 0.000000
0.669640 0.544017 0.000000
0.635174 0.584938 0.000000
0.596856 0.616888 0.000000
0.560279 0.645454 0.000000
0.526422 0.672520 0.000000
0.504328 0.706409 0.000000
0.492619 0.742499 0.000000
0.496657 0.782905 0.000000
0.513960 0.823574 0.000000
0.571715 0.866484 0.000000
0.656345 0.900412 0.000000
0.810812 0.918468 0.000000
1.000000 0.926172 0.000000
0.000000 0.033885 0.000000
0.390815 0.047549 0.000000
0.599715 0.097381 0.000000
0.685401 0.175708 0.000000
0.715445 0.262545 0.000000
0.722020 0.347849 0.000000
0.702514 0.413628 0.000000
0.672520 0.473578 0.000000
0.633313 0.517691 0.000000
0.595507 0.554662 0.000000
0.554705 0.581885 0.000000
0.517576 0.607991 0.000000
0.482309 0.633313 0.000000
0.455983 0.669640 0.000000
0.437606 0.709265 0.000000
0.435915 0.757046 0.000000
0.446477 0.804597 0.000000
0.502106 0.858748 0.000000
0.587976 0.903835 0.000000
0.765703 0.927858 0.000000
1.000000 0.937742 0.000000
0.000000 0.039217 0.000000
0.353764 0.052588 0.000000
0.561275 0.095093 0.000000
0.645986 0.167277 0.000000
0.686739 0.247569 0.000000
0.689915 0.322673 0.000000
0.674963 0.385663 0.000000
0.645454 0.439721 0.000000
0.607991 0.482424 0.000000
0.567879 0.516082 0.000000
0.525242 0.541961 0.000000
0.483918 0.567879 0.000000
0.445338 0.595507 0.000000
0.415062 0.635174 0.000000
0.392967 0.679261 0.000000
0.387254 0.732788 0.000000
0.394133 0.788589 0.000000
0.447680 0.852176 0.000000
0.531986 0.905753 0.000000
0.723616 0.935352 0.000000
1.000000 0.946948 0.000000
0.000000 0.045457 0.000000
0.315811 0.058297 0.000000
0.517579 0.093859 0.000000
0.602498 0.157790 0.000000
0.650967 0.231598 0.000000
0.654139 0.295426 0.000000
0.643565 0.355035 0.000000
0.616888 0.403144 0.000000
0.581885 0.445295 0.000000
0.541961 0.474758 0.000000
0.500000 0.500000 0.000000
0.458039 0.525242 0.000000
0.418115 0.554705 0.000000
0.383112 0.596856 0.000000
0.356435 0.644965 0.000000
0.345861 0.704574 0.000000
0.349033 0.768402 0.000000
0.397502 0.842210 0.000000
0.482421 0.906141 0.000000
0.684189 0.941703 0.000000
1.000000 0.954543 0.000000
0.000000 0.053052 0.000000
0.276384 0.064648 0.000000
0.468014 0.094247 0.000000
0.552320 0.147824 0.000000
0.605867 0.211411 0.000000
0.612746 0.267212 0.000000
0.607033 0.320739 0.000000
0.584938 0.364826 0.000000
0.554662 0.404493 0.000000
0.516082 0.432121 0.000000
0.474758 0.458039 0.000000
0.432121 0.483918 0.000000
0.392009 0.517576 0.000000
0.354546 0.560279 0.000000
0.325037 0.614337 0.000000
0.310085 0.677327 0.000000
0.313261 0.752431 0.000000
0.354014 0.832723 0.000000
0.438725 0.904907 0.000000
0.646236 0.947412 0.000000
1.000000 0.960783 0.000000
0.000000 0.062258 0.000000
0.234297 0.072142 0.000000
0.412024 0.096165 0.000000
0.497894 0.141252 0.000000
0.553523 0.195403 0.000000
0.564085 0.242954 0.000000
0.562394 0.290735 0.000000
0.544017 0.330360 0.000000
0.517691 0.366687 0.000000
0.482424 0.392009 0.000000
0.445295 0.418115 0.000000
0.404493 0.445338 0.000000
0.366687 0.482309 0.000000
0.327480 0.526422 0.000000
0.297486 0.586372 0.000000
0.277980 0.652151 0.000000
0.284555 0.737455 0.000000
0.314599 0.824292 0.000000
0.400285 0.902619 0.000000
0.609185 0.952451 0.000000
1.000000 0.966115 0.000000
0.000000 0.073828 0.000000
0.189188 0.081532 0.000000
0.343655 0.099588 0.000000
0.428285 0.133516 0.000000
0.486040 0.176426 0.000000
0.503343 0.217095 0.000000
0.507381 0.257501 0.000000
0.495672 0.293591 0.000000
0.473578 0.327480 0.000000
0.439721 0.354546 0.000000
0.403144 0.383112 0.000000
0.364826 0.415062 0.000000
0.330360 0.455983 0.000000
0.293591 0.504328 0.000000
0.267031 0.569076 0.000000
0.246082 0.640268 0.000000
0.259652 0.730885 0.000000
0.281444 0.823000 0.000000
0.368165 0.902371 0.000000
0.577934 0.957477 0.000000
1.000000 0.970693 0.000000
0.000000 0.089297 0.000000
0.146570 0.094468 0.000000
0.272316 0.107956 0.000000
0.351947 0.133030 0.000000
0.412514 0.166540 0.000000
0.432752 0.200574 0.000000
0.439538 0.235622 0.000000
0.430924 0.267031 0.000000
0.413628 0.297486 0.000000
0.385663 0.325037 0.000000
0.355035 0.356435 0.000000
0.320739 0.392967 0.000000
0.290735 0.437606 0.000000
0.257501 0.492619 0.000000
0.235622 0.560462 0.000000
0.216258 0.640197 0.000000
0.236096 0.730961 0.000000
0.253905 0.828332 0.000000
0.341358 0.905068 0.000000
0.551752 0.962547 0.000000
1.000000 0.974898 0.000000
0.000000 0.108417 0.000000
0.112417 0.113068 0.000000
0.204833 0.123729 0.000000
0.269004 0.142341 0.000000
0.318744 0.163881 0.000000
0.345093 0.188618 0.000000
0.359803 0.216258 0.000000
0.359732 0.246082 0.000000
0.347849 0.277980 0.000000
0.322673 0.310085 0.000000
0.295426 0.345861 0.000000
0.267212 0.387254 0.000000
0.242954 0.435915 0.000000
0.217095 0.496657 0.000000
0.200574 0.567248 0.000000
0.188618 0.654907 0.000000
0.212033 0.740053 0.000000
0.231685 0.841082 0.000000
0.318040 0.911361 0.000000
0.529878 0.967887 0.000000
1.000000 0.978964 0.000000
0.000000 0.133915 0.000000
0.077224 0.138067 0.000000
0.145553 0.148606 0.000000
0.198296 0.166516 0.000000
0.239993 0.188418 0.000000
0.259947 0.212033 0.000000
0.269039 0.236096 0.000000
0.269115 0.259652 0.000000
0.262545 0.284555 0.000000
0.247569 0.313261 0.000000
0.231598 0.349033 0.000000
0.211411 0.394133 0.000000
0.195403 0.446477 0.000000
0.176426 0.513960 0.000000
0.166540 0.587486 0.000000
0.163881 0.681256 0.000000
0.188418 0.760007 0.000000
0.214897 0.860713 0.000000
0.298879 0.922098 0.000000
0.513897 0.973581 0.000000
1.000000 0.982889 0.000000
0.000000 0.181357 0.000000
0.042550 0.184963 0.000000
0.080671 0.191362 0.000000
0.111916 0.202319 0.000000
0.139287 0.214897 0.000000
0.158918 0.231685 0.000000
0.171668 0.253905 0.000000
0.177000 0.281444 0.000000
0.175708 0.314599 0.000000
0.167277 0.354014 0.000000
0.157790 0.397502 0.000000
0.147824 0.447680 0.000000
0.141252 0.502106 0.000000
0.133516 0.571715 0.000000
0.133030 0.648053 0.000000
0.142341 0.730996 0.000000
0.166516 0.801704 0.000000
0.202319 0.888084 0.000000
0.281885 0.937161 0.000000
0.502295 0.979812 0.000000
1.000000 0.986953 0.000000
0.000000 0.250079 0.000000
0.023677 0.255746 0.000000
0.044991 0.266331 0.000000
0.062839 0.281885 0.000000
0.077902 0.298879 0.000000
0.088639 0.318040 0.000000
0.094932 0.341358 0.000000
0.097629 0.368165 0.000000
0.097381 0.400285 0.000000
0.095093 0.438725 0.000000
0.093859 0.482421 0.000000
0.094247 0.531986 0.000000
0.096165 0.587976 0.000000
0.099588 0.656345 0.000000
0.107956 0.727684 0.000000
0.123729 0.795167 0.000000
0.148606 0.854447 0.000000
0.191362 0.919329 0.000000
0.266331 0.955009 0.000000
0.494413 0.986315 0.000000
1.000000 0.991127 0.000000
0.000000 0.485961 0.000000
0.006934 0.488319 0.000000
0.013685 0.494413 0.000000
0.020188 0.502295 0.000000
0.026419 0.513897 0.000000
0.032113 0.529878 0.000000
0.037453 0.551752 0.000000
0.042523 0.577934 0.000000
0.047549 0.609185 0.000000
0.052588 0.646236 0.000000
0.058297 0.684189 0.000000
0.064648 0.723616 0.000000
0.072142 0.765703 0.000000
0.081532 0.810812 0.000000
0.094468 0.853430 0.000000
0.113068 0.887583 0.000000
0.138067 0.922776 0.000000
0.184963 0.957450 0.000000
0.255746 0.976323 0.000000
0.488319 0.993066 0.000000
1.000000 0.995502 0.000000
0.000000 1.000000 0.000000
0.004498 1.000000 0.000000
0.008873 1.000000 0.000000
0.013047 1.000000 0.000000
0.017111 1.000000 0.000000
0.021036 1.000000 0.000000
0.025102 1.000000 0.000000
0.029307 1.000000 0.000000
0.033885 1.000000 0.000000
0.039217 1.000000 0.000000
0.045457 1.000000 0.000000
0.053052 1.000000 0.000000
0.062258 1.000000 0.000000
0.073828 1.000000 0.000000
0.089297 1.000000 0.000000
0.108417 1.000000 0.000000
0.133915 1.000000 0.000000
0.181357 1.000000 0.000000
0.250079 1.000000 0.000000
0.485961 1.000000 0.000000
1.000000 1.000000 0.000000
0.000000 0.000000 0.082500
0.514039 0.000000 0.082500
0.749921 0.000000 0.082500
0.818643 0.000000 0.082500
0.866085 0.000000 0.082500
0.891583 0.000000 0.082500
0.910703 0.000000 0.082500
0.926172 0.000000 0.082500
0.937742 0.000000 0.082500
0.946948 0.000000 0.082500
0.954543 0.000000 0.082500
0.960783 0.000000 0.082500
0.966115 0.000000 0.082500
0.970693 0.000000 0.082500
0.974898 0.000000 0.082500
0.978964 0.000000 0.082500
0.982889 0.000000 0.082500
0.986953 0.000000 0.082500
0.991127 0.000000 0.082500
0.995502 0.000000 0.082500
1.000000 0.000000 0.082500
0.000000 0.004498 0.082500
0.511681 0.006934 0.082500
0.744254 0.023677 0.082500
0.815037 0.042550 0.082500
0.861933 0.077224 0.082500
0.886932 0.112417 0.082500
0.905532 0.146570 0.082500
0.918468 0.189188 0.082500
0.927858 0.234297 0.082500
0.935352 0.276384 0.082500
0.941703 0.315811 0.082500
0.947412 0.353764 0.082500
0.952451 0.390815 0.082500
0.957477 0.422066 0.082500
0.962547 0.448248 0.082500
0.967887 0.470122 0.082500
0.973581 0.486103 0.082500
0.979812 0.497705 0.082500
0.986315 0.505587 0.082500
0.993066 0.511681 0.082500
1.000000 0.514039 0.082500
0.000000 0.008873 0.082500
0.505587 0.013685 0.082500
0.733669 0.044991 0.082500
0.808638 0.080671 0.082500
0.851394 0.145553 0.082500
0.876271 0.204833 0.082500
0.892044 0.272316 0.082500
0.900412 0.343655 0.082500
0.903835 0.412024 0.082500
0.905753 0.468014 0.082500
0.906141 0.517579 0.082500
0.904907 0.561275 0.082500
0.902619 0.599715 0.082500
0.902371 0.631835 0.082500
0.905068 0.658642 0.082500
0.911361 0.681960 0.082500
0.922098 0.701121 0.082500
0.937161 0.718115 0.082500
0.955009 0.733669 0.082500
0.976323 0.744254 0.082500
1.000000 0.749921 0.082500
0.000000 0.013047 0.082500
0.497705 0.020188 0.082500
0.718115 0.062839 0.082500
0.797681 0.111916 0.082500
0.833484 0.198296 0.082500
0.857659 0.269004 0.082500
0.866970 0.351947 0.082500
0.866484 0.428285 0.082500
0.858748 0.497894 0.082500
0.852176 0.552320 0.082500
0.842210 0.602498 0.082500
0.832723 0.645986 0.082500
0.824292 0.685401 0.082500
0.823000 0.718556 0.082500
0.828332 0.746095 0.082500
0.841082 0.768315 0.082500
0.860713 0.785103 0.082500
0.888084 0.797681 0.082500
0.919329 0.808638 0.082500
0.957450 0.815037 0.082500
1.000000 0.818643 0.082500
0.000000 0.017111 0.082500
0.486103 0.026419 0.082500
0.701121 0.077902 0.082500
0.785103 0.139287 0.082500
0.811582 0.239993 0.082500
0.836119 0.318744 0.082500
0.833460 0.412514 0.082500
0.823574 0.486040 0.082500
0.804597 0.553523 0.082500
0.788589 0.605867 0.082500
0.768402 0.650967 0.082500
0.752431 0.686739 0.082500
0.737455 0.715445 0.082500
0.730885 0.740348 0.082500
0.730961 0.763904 0.082500
0.740053 0.787967 0.082500
0.760007 0.811582 0.082500
0.801704 0.833484 0.082500
0.854447 0.851394 0.082500
0.922776 0.861933 0.082500
1.000000 0.866085 0.082500
0.000000 0.021036 0.082500
0.470122 0.032113 0.082500
0.681960 0.088639 0.082500
0.768315 0.158918 0.082500
0.787967 0.259947 0.082500
0.811382 0.345093 0.082500
0.799426 0.432752 0.082500
0.782905 0.503343 0.082500
0.757046 0.564085 0.082500
0.732788 0.612746 0.082500
0.704574 0.654139 0.082500
0.677327 0.689915 0.082500
0.652151 0.722020 0.082500
0.640268 0.753918 0.082500
0.640197 0.783742 0.082500
0.654907 0.811382 0.082500
0.681256 0.836119 0.082500
0.730996 0.857659 0.082500
0.795167 0.876271 0.082500
0.887583 0.886932 0.082500
1.000000 0.891583 0.082500
0.000000 0.025102 0.082500
0.448248 0.037453 0.082500
0.658642 0.094932 0.082500
0.746095 0.171668 0.082500
0.763904 0.269039 0.082500
0.783742 0.359803 0.082500
0.764378 0.439538 0.082500
0.742499 0.507381 0.082500
0.709265 0.562394 0.082500
0.679261 0.607033 0.082500
0.644965 0.643565 0.082500
0.614337 0.674963 0.082500
0.586372 0.702514 0.082500
0.569076 0.732969 0.082500
0.560462 0.764378 0.082500
0.567248 0.799426 0.082500
0.587486 0.833460 0.082500
0.648053 0.866970 0.082500
0.727684 0.892044 0.082500
0.853430 0.905532 0.082500
1.000000 0.910703 0.082500
0.000000 0.029307 0.082500
0.422066 0.042523 0.082500
0.631835 0.097629 0.082500
0.718556 0.177000 0.082500
0.740348 0.269115 0.082500
0.753918 0.359732 0.082500
0.732969 0.430924 0.082500
0.706409 0.495672 0.082500
0.669640 0.544017 0.082500
0.635174 0.584938 0.082500
0.596856 0.616888 0.082500
0.560279 0.645454 0.082500
0.526422 0.672520 0.082500
0.504328 0.706409 0.082500
0.492619 0.742499 0.082500
0.496657 0.782905 0.082500
0.513960 0.823574 0.082500
0.571715 0.866484 0.082500
0.656345 0.900412 0.082500
0.810812 0.918468 0.082500
1.000000 0.926172 0.082500
0.000000 0.033885 0.082500
0.390815 0.047549 0.082500
0.599715 0.097381 0.082500
0.685401 0.175708 0.082500
0.715445 0.262545 0.082500
0.722020 0.347849 0.082500
0.702514 0.413628 0.082500
0.672520 0.473578 0.082500
0.633313 0.517691 0.082500
0.595507 0.554662 0.082500
0.554705 0.581885 0.082500
0.517576 0.607991 0.082500
0.482309 0.633313 0.082500
0.455983 0.669640 0.082500
0.437606 0.709265 0.082500
0.435915 0.757046 0.082500
0.446477 0.804597 0.082500
0.502106 0.858748 0.082500
0.587976 0.903835 0.082500
0.765703 0.927858 0.082500
1.000000 0.937742 0.082500
0.000000 0.039217 0.082500
0.353764 0.052588 0.082500
0.561275 0.095093 0.082500
0.645986 0.167277 0.082500
0.686739 0.247569 0.082500
0.689915 0.322673 0.082500
0.674963 0.385663 0.082500
0.645454 0.439721 0.082500
0.607991 0.482424 0.082500
0.567879 0.516082 0.082500
0.525242 0.541961 0.082500
0.483918 0.567879 0.082500
0.445338 0.595507 0.082500
0.415062 0.635174 0.082500
0.392967 0.679261 0.082500
0.387254 0.732788 0.082500
0.394133 0.788589 0.082500
0.447680 0.852176 0.082500
0.531986 0.905753 0.082500
0.723616 0.935352 0.082500
1.000000 0.946948 0.082500
0.000000 0.045457 0.082500
0.315811 0.058297 0.082500
0.517579 0.093859 0.082500
0.602498 0.157790 0.082500
0.650967 0.231598 0.082500
0.654139 0.295426 0.082500
0.643565 0.355035 0.082500
0.616888 0.403144 0.082500
0.581885 0.445295 0.082500
0.541961 0.474758 0.082500
0.500000 0.500000 0.082500
0.458039 0.525242 0.082500
0.418115 0.554705 0.082500
0.383112 0.596856 0.082500
0.356435 0.644965 0.082500
0.345861 0.704574 0.082500
0.349033 0.768402 0.082500
0.397502 0.842210 0.082500
0.482421 0.906141 0.082500
0.684189 0.941703 0.082500
1.000000 0.954543 0.082500
0.000000 0.053052 0.082500
0.276384 0.064648 0.082500
0.468014 0.094247 0.082500
0.552320 0.147824 0.082500
0.605867 0.211411 0.082500
0.612746 0.267212 0.082500
0.607033 0.320739 0.082500
0.584938 0.364826 0.082500
0.554662 0.404493 0.082500
0.516082 0.432121 0.082500
0.474758 0.458039 0.082500
0.432121 0.483918 0.082500
0.392009 0.517576 0.082500
0.354546 0.560279 0.082500
0.325037 0.614337 0.082500
0.310085 0.677327 0.082500
0.313261 0.752431 0.082500
0.354014 0.832723 0.082500
0.438725 0.904907 0.082500
0.646236 0.947412 0.082500
1.000000 0.960783 0.082500
0.000000 0.062258 0.082500
0.234297 0.072142 0.082500
0.412024 0.096165 0.082500
0.497894 0.141252 0.082500
0.553523 0.195403 0.082500
0.564085 0.242954 0.082500
0.562394 0.290735 0.082500
0.544017 0.330360 0.082500
0.517691 0.366687 0.082500
0.482424 0.392009 0.082500
0.445295 0.418115 0.082500
0.404493 0.445338 0.082500
0.366687 0.482309 0.082500
0.327480 0.526422 0.082500
0.297486 0.586372 0.082500
0.277980 0.652151 0.082500
0.284555 0.737455 0.082500
0.314599 0.824292 0.082500
0.400285 0.902619 0.082500
0.609185 0.952451 0.082500
1.000000 0.966115 0.082500
0.000000 0.073828 0.082500
0.189188 0.081532 0.082500
0.343655 0.099588 0.082500
0.428285 0.133516 0.082500
0.486040 0.176426 0.082500
0.503343 0.217095 0.082500
0.507381 0.257501 0.082500
0.495672 0.293591 0.082500
0.473578 0.327480 0.082500
0.439721 0.354546 0.082500
0.403144 0.383112 0.082500
0.364826 0.415062 0.082500
0.330360 0.455983 0.082500
0.293591 0.504328 0.082500
0.267031 0.569076 0.082500
0.246082 0.640268 0.082500
0.259652 0.730885 0.082500
0.281444 0.823000 0.082500
0.368165 0.902371 0.082500
0.577934 0.957477 0.082500
1.000000 0.970693 0.082500
0.000000 0.089297 0.082500
0.146570 0.094468 0.082500
0.272316 0.107956 0.082500
0.351947 0.133030 0.082500