# vtk DataFile Version 2.0
Mesh for Fierro
ASCII 
DATASET UNSTRUCTURED_GRID

POINTS 2205 float
0.000000 0.000000 0.000000
0.112122 0.000000 0.000000
0.218079 0.000000 0.000000
0.316569 0.000000 0.000000
0.404319 0.000000 0.000000
0.478845 0.000000 0.000000
0.544120 0.000000 0.000000
0.600071 0.000000 0.000000
0.649608 0.000000 0.000000
0.693886 0.000000 0.000000
0.734144 0.000000 0.000000
0.769456 0.000000 0.000000
0.801643 0.000000 0.000000
0.831385 0.000000 0.000000
0.859464 0.000000 0.000000
0.885057 0.000000 0.000000
0.909508 0.000000 0.000000
0.932711 0.000000 0.000000
0.955543 0.000000 0.000000
0.977983 0.000000 0.000000
1.000000 0.000000 0.000000
0.000000 0.022017 0.000000
0.111407 0.022644 0.000000
0.216767 0.024444 0.000000
0.315013 0.027421 0.000000
0.402655 0.030742 0.000000
0.476831 0.035542 0.000000
0.541821 0.040944 0.000000
0.597584 0.046730 0.000000
0.647097 0.053151 0.000000
0.691182 0.059790 0.000000
0.731190 0.066636 0.000000
0.766514 0.073559 0.000000
0.798646 0.080686 0.000000
0.828363 0.087309 0.000000
0.856405 0.093284 0.000000
0.882439 0.098684 0.000000
0.907005 0.103057 0.000000
0.930964 0.106848 0.000000
0.953933 0.109630 0.000000
0.977356 0.111407 0.000000
1.000000 0.112122 0.000000
0.000000 0.044457 0.000000
0.109630 0.046067 0.000000
0.213362 0.049072 0.000000
0.310266 0.054650 0.000000
0.397066 0.061455 0.000000
0.470268 0.070866 0.000000
0.534593 0.081470 0.000000
0.589721 0.092824 0.000000
0.638638 0.105200 0.000000
0.682391 0.118010 0.000000
0.722037 0.131199 0.000000
0.757575 0.144434 0.000000
0.789534 0.158098 0.000000
0.819900 0.170836 0.000000
0.848357 0.182164 0.000000
0.875767 0.192473 0.000000
0.900890 0.200991 0.000000
0.926478 0.208200 0.000000
0.950928 0.213362 0.000000
0.975556 0.216767 0.000000
1.000000 0.218079 0.000000
0.000000 0.067289 0.000000
0.106848 0.069036 0.000000
0.208200 0.073522 0.000000
0.303074 0.082007 0.000000
0.388380 0.091570 0.000000
0.459962 0.105417 0.000000
0.522930 0.120956 0.000000
0.577066 0.137689 0.000000
0.625251 0.155658 0.000000
0.668432 0.174137 0.000000
0.707312 0.193321 0.000000
0.742714 0.212402 0.000000
0.774634 0.231778 0.000000
0.805339 0.249804 0.000000
0.834496 0.266106 0.000000
0.863254 0.280521 0.000000
0.890880 0.292810 0.000000
0.917993 0.303074 0.000000
0.945350 0.310266 0.000000
0.972579 0.315013 0.000000
1.000000 0.316569 0.000000
0.000000 0.090492 0.000000
0.103057 0.092995 0.000000
0.200991 0.099110 0.000000
0.292810 0.109120 0.000000
0.375970 0.121766 0.000000
0.445261 0.139566 0.000000
0.506484 0.159400 0.000000
0.559478 0.180767 0.000000
0.606912 0.203734 0.000000
0.649376 0.227254 0.000000
0.687618 0.251747 0.000000
0.722974 0.275930 0.000000
0.755538 0.300333 0.000000
0.787096 0.322672 0.000000
0.817374 0.343065 0.000000
0.848019 0.360803 0.000000
0.878234 0.375970 0.000000
0.908430 0.388380 0.000000
0.938545 0.397066 0.000000
0.969258 0.402655 0.000000
1.000000 0.404319 0.000000
0.000000 0.114943 0.000000
0.098684 0.117561 0.000000
0.192473 0.124233 0.000000
0.280521 0.136746 0.000000
0.360803 0.151981 0.000000
0.427249 0.172256 0.000000
0.486344 0.195157 0.000000
0.538128 0.219981 0.000000
0.584757 0.246456 0.000000
0.626164 0.273470 0.000000
0.663544 0.301557 0.000000
0.698387 0.329316 0.000000
0.730938 0.357062 0.000000
0.763407 0.382816 0.000000
0.795125 0.406323 0.000000
0.827744 0.427249 0.000000
0.860434 0.445261 0.000000
0.894583 0.459962 0.000000
0.929134 0.470268 0.000000
0.964458 0.476831 0.000000
1.000000 0.478845 0.000000
0.000000 0.140536 0.000000
0.093284 0.143595 0.000000
0.182164 0.151643 0.000000
0.266106 0.165504 0.000000
0.343065 0.182626 0.000000
0.406323 0.204875 0.000000
0.463006 0.230028 0.000000
0.513194 0.257491 0.000000
0.558633 0.286772 0.000000
0.598834 0.316697 0.000000
0.635528 0.347686 0.000000
0.670059 0.378272 0.000000
0.702801 0.408719 0.000000
0.736423 0.437091 0.000000
0.769972 0.463006 0.000000
0.804843 0.486344 0.000000
0.840600 0.506484 0.000000
0.879044 0.522930 0.000000
0.918530 0.534593 0.000000
0.959056 0.541821 0.000000
1.000000 0.544120 0.000000
0.000000 0.168615 0.000000
0.087309 0.171637 0.000000
0.170836 0.180100 0.000000
0.249804 0.194661 0.000000
0.322672 0.212904 0.000000
0.382816 0.236593 0.000000
0.437091 0.263577 0.000000
0.485445 0.293241 0.000000
0.529440 0.324749 0.000000
0.568358 0.357044 0.000000
0.604266 0.390344 0.000000
0.638563 0.423039 0.000000
0.671647 0.455220 0.000000
0.706759 0.485445 0.000000
0.742509 0.513194 0.000000
0.780019 0.538128 0.000000
0.819233 0.559478 0.000000
0.862311 0.577066 0.000000
0.907176 0.589721 0.000000
0.953270 0.597584 0.000000
1.000000 0.600071 0.000000
0.000000 0.198357 0.000000
0.080686 0.201354 0.000000
0.158098 0.210466 0.000000
0.231778 0.225366 0.000000
0.300333 0.244462 0.000000
0.357062 0.269062 0.000000
0.408719 0.297199 0.000000
0.455220 0.328353 0.000000
0.498006 0.361594 0.000000
0.535448 0.395489 0.000000
0.570595 0.430434 0.000000
0.604818 0.464672 0.000000
0.638406 0.498006 0.000000
0.675251 0.529440 0.000000
0.713228 0.558633 0.000000
0.753544 0.584757 0.000000
0.796266 0.606912 0.000000
0.844342 0.625251 0.000000
0.894800 0.638638 0.000000
0.946849 0.647097 0.000000
1.000000 0.649608 0.000000
0.000000 0.230544 0.000000
0.073559 0.233486 0.000000
0.144434 0.242425 0.000000
0.212402 0.257286 0.000000
0.275930 0.277026 0.000000
0.329316 0.301613 0.000000
0.378272 0.329941 0.000000
0.423039 0.361437 0.000000
0.464672 0.395182 0.000000
0.501074 0.429865 0.000000
0.535836 0.465641 0.000000
0.570135 0.501074 0.000000
0.604511 0.535448 0.000000
0.642956 0.568358 0.000000
0.683303 0.598834 0.000000
0.726530 0.626164 0.000000
0.772746 0.649376 0.000000
0.825863 0.668432 0.000000
0.881990 0.682391 0.000000
0.940210 0.691182 0.000000
1.000000 0.693886 0.000000
0.000000 0.265856 0.000000
0.066636 0.268810 0.000000
0.131199 0.277963 0.000000
0.193321 0.292688 0.000000
0.251747 0.312382 0.000000
0.301557 0.336456 0.000000
0.347686 0.364472 0.000000
0.390344 0.395734 0.000000
0.430434 0.429405 0.000000
0.465641 0.464164 0.000000
0.500000 0.500000 0.000000
0.534359 0.535836 0.000000
0.569566 0.570595 0.000000
0.609656 0.604266 0.000000
0.652314 0.635528 0.000000
0.698443 0.663544 0.000000
0.748253 0.687618 0.000000
0.806679 0.707312 0.000000
0.868801 0.722037 0.000000
0.933364 0.731190 0.000000
1.000000 0.734144 0.000000
0.000000 0.306114 0.000000
0.059790 0.308818 0.000000
0.118010 0.317609 0.000000
0.174137 0.331568 0.000000
0.227254 0.350624 0.000000
0.273470 0.373836 0.000000
0.316697 0.401166 0.000000
0.357044 0.431642 0.000000
0.395489 0.464552 0.000000
0.429865 0.498926 0.000000
0.464164 0.534359 0.000000
0.498926 0.570135 0.000000
0.535328 0.604818 0.000000
0.576961 0.638563 0.000000
0.621728 0.670059 0.000000
0.670684 0.698387 0.000000
0.724070 0.722974 0.000000
0.787598 0.742714 0.000000
0.855566 0.757575 0.000000
0.926441 0.766514 0.000000
1.000000 0.769456 0.000000
0.000000 0.350392 0.000000
0.053151 0.352903 0.000000
0.105200 0.361362 0.000000
0.155658 0.374749 0.000000
0.203734 0.393088 0.000000
0.246456 0.415243 0.000000
0.286772 0.441367 0.000000
0.324749 0.470560 0.000000
0.361594 0.501994 0.000000
0.395182 0.535328 0.000000
0.429405 0.569566 0.000000
0.464552 0.604511 0.000000
0.501994 0.638406 0.000000
0.544780 0.671647 0.000000
0.591281 0.702801 0.000000
0.642938 0.730938 0.000000
0.699667 0.755538 0.000000
0.768222 0.774634 0.000000
0.841902 0.789534 0.000000
0.919314 0.798646 0.000000
1.000000 0.801643 0.000000
0.000000 0.399929 0.000000
0.046730 0.402416 0.000000
0.092824 0.410279 0.000000
0.137689 0.422934 0.000000
0.180767 0.440522 0.000000
0.219981 0.461872 0.000000
0.257491 0.486806 0.000000
0.293241 0.514555 0.000000
0.328353 0.544780 0.000000
0.361437 0.576961 0.000000
0.395734 0.609656 0.000000
0.431642 0.642956 0.000000
0.470560 0.675251 0.000000
0.514555 0.706759 0.000000
0.562909 0.736423 0.000000
0.617184 0.763407 0.000000
0.677328 0.787096 0.000000
0.750196 0.805339 0.000000
0.829164 0.819900 0.000000
0.912691 0.828363 0.000000
1.000000 0.831385 0.000000
0.000000 0.455880 0.000000
0.040944 0.458179 0.000000
0.081470 0.465407 0.000000
0.120956 0.477070 0.000000
0.159400 0.493516 0.000000
0.195157 0.513656 0.000000
0.230028 0.536994 0.000000
0.263577 0.562909 0.000000
0.297199 0.591281 0.000000
0.329941 0.621728 0.000000
0.364472 0.652314 0.000000
0.401166 0.683303 0.000000
0.441367 0.713228 0.000000
0.486806 0.742509 0.000000
0.536994 0.769972 0.000000
0.593677 0.795125 0.000000
0.656935 0.817374 0.000000
0.733894 0.834496 0.000000
0.817836 0.848357 0.000000
0.906716 0.856405 0.000000
1.000000 0.859464 0.000000
0.000000 0.521155 0.000000
0.035542 0.523169 0.000000
0.070866 0.529732 0.000000
0.105417 0.540038 0.000000
0.139566 0.554739 0.000000
0.172256 0.572751 0.000000
0.204875 0.593677 0.000000
0.236593 0.617184 0.000000
0.269062 0.642938 0.000000
0.301613 0.670684 0.000000
0.336456 0.698443 0.000000
0.373836 0.726530 0.000000
0.415243 0.753544 0.000000
0.461872 0.780019 0.000000
0.513656 0.804843 0.000000
0.572751 0.827744 0.000000
0.639197 0.848019 0.000000
0.719479 0.863254 0.000000
0.807527 0.875767 0.000000
0.901316 0.882439 0.000000
1.000000 0.885057 0.000000
0.000000 0.595681 0.000000
0.030742 0.597345 0.000000
0.061455 0.602934 0.000000
0.091570 0.611620 0.000000
0.121766 0.624030 0.000000
0.151981 0.639197 0.000000
0.182626 0.656935 0.000000
0.212904 0.677328 0.000000
0.244462 0.699667 0.000000
0.277026 0.724070 0.000000
0.312382 0.748253 0.000000
0.350624 0.772746 0.000000
0.393088 0.796266 0.000000
0.440522 0.819233 0.000000
0.493516 0.840600 0.000000
0.554739 0.860434 0.000000
0.624030 0.878234 0.000000
0.707190 0.890880 0.000000
0.799009 0.900890 0.000000
0.896943 0.907005 0.000000
1.000000 0.909508 0.000000
0.000000 0.683431 0.000000
0.027421 0.684987 0.000000
0.054650 0.689734 0.000000
0.082007 0.696926 0.000000
0.109120 0.707190 0.000000
0.136746 0.719479 0.000000
0.165504 0.733894 0.000000
0.194661 0.750196 0.000000
0.225366 0.768222 0.000000
[...]
POINT_DATA 2205 
VECTORS pos float 
0.000000 0.000000 0.000000
0.112122 0.000000 0.000000
0.218079 0.000000 0.000000
0.316569 0.000000 0.000000
0.404319 0.000000 0.000000
0.478845 0.000000 0.000000
0.544120 0.000000 0.000000
0.600071 0.000000 0.000000
0.649608 0.000000 0.000000
0.693886 0.000000 0.000000
0.734144 0.000000 0.000000
0.769456 0.000000 0.000000
0.801643 0.000000 0.000000
0.831385 0.000000 0.000000
0.859464 0.000000 0.000000
0.885057 0.000000 0.000000
0.909508 0.000000 0.000000
0.932711 0.000000 0.000000
0.955543 0.000000 0.000000
0.977983 0.000000 0.000000
1.000000 0.000000 0.000000
0.000000 0.022017 0.000000
0.111407 0.022644 0.000000
0.216767 0.024444 0.000000
0.315013 0.027421 0.000000
0.402655 0.030742 0.000000
0.476831 0.035542 0.000000
0.541821 0.040944 0.000000
0.597584 0.046730 0.000000
0.647097 0.053151 0.000000
0.691182 0.059790 0.000000
0.731190 0.066636 0.000000
0.766514 0.073559 0.000000
0.798646 0.080686 0.000000
0.828363 0.087309 0.000000
0.856405 0.093284 0.000000
0.882439 0.098684 0.000000
0.907005 0.103057 0.000000
0.930964 0.106848 0.000000
0.953933 0.109630 0.000000
0.977356 0.111407 0.000000
1.000000 0.112122 0.000000
0.000000 0.044457 0.000000
0.109630 0.046067 0.000000
0.213362 0.049072 0.000000
0.310266 0.054650 0.000000
0.397066 0.061455 0.000000
0.470268 0.070866 0.000000
0.534593 0.081470 0.000000
0.589721 0.092824 0.000000
0.638638 0.105200 0.000000
0.682391 0.118010 0.000000
0.722037 0.131199 0.000000
0.757575 0.144434 0.000000
0.789534 0.158098 0.000000
0.819900 0.170836 0.000000
0.848357 0.182164 0.000000
0.875767 0.192473 0.000000
0.900890 0.200991 0.000000
0.926478 0.208200 0.000000
0.950928 0.213362 0.000000
0.975556 0.216767 0.000000
1.000000 0.218079 0.000000
0.000000 0.067289 0.000000
0.106848 0.069036 0.000000
0.208200 0.073522 0.000000
0.303074 0.082007 0.000000
0.388380 0.091570 0.000000
0.459962 0.105417 0.000000
0.522930 0.120956 0.000000
0.577066 0.137689 0.000000
0.625251 0.155658 0.000000
0.668432 0.174137 0.000000
0.707312 0.193321 0.000000
0.742714 0.212402 0.000000
0.774634 0.231778 0.000000
0.805339 0.249804 0.000000
0.834496 0.266106 0.000000
0.863254 0.280521 0.000000
0.890880 0.292810 0.000000
0.917993 0.303074 0.000000
0.945350 0.310266 0.000000
0.972579 0.315013 0.000000
1.000000 0.316569 0.000000
0.000000 0.090492 0.000000
0.103057 0.092995 0.000000
0.200991 0.099110 0.000000
0.292810 0.109120 0.000000
0.375970 0.121766 0.000000
0.445261 0.139566 0.000000
0.506484 0.159400 0.000000
0.559478 0.180767 0.000000
0.606912 0.203734 0.000000
0.649376 0.227254 0.000000
0.687618 0.251747 0.000000
0.722974 0.275930 0.000000
0.755538 0.300333 0.000000
0.787096 0.322672 0.000000
0.817374 0.343065 0.000000
0.848019 0.360803 0.000000
0.878234 0.375970 0.000000
0.908430 0.388380 0.000000
0.938545 0.397066 0.000000
0.969258 0.402655 0.000000
1.000000 0.404319 0.000000
0.000000 0.114943 0.000000
0.098684 0.117561 0.000000
0.192473 0.124233 0.000000
0.280521 0.136746 0.000000
0.360803 0.151981 0.000000
0.427249 0.172256 0.000000
0.486344 0.195157 0.000000
0.538128 0.219981 0.000000
0.584757 0.246456 0.000000
0.626164 0.273470 0.000000
0.663544 0.301557 0.000000
0.698387 0.329316 0.000000
0.730938 0.357062 0.000000
0.763407 0.382816 0.000000
0.795125 0.406323 0.000000
0.827744 0.427249 0.000000
0.860434 0.445261 0.000000
0.894583 0.459962 0.000000
0.929134 0.470268 0.000000
0.964458 0.476831 0.000000
1.000000 0.478845 0.000000
0.000000 0.140536 0.000000
0.093284 0.143595 0.000000
0.182164 0.151643 0.000000
0.266106 0.165504 0.000000
0.343065 0.182626 0.000000
0.406323 0.204875 0.000000
0.463006 0.230028 0.000000
0.513194 0.257491 0.000000
0.558633 0.286772 0.000000
0.598834 0.316697 0.000000
0.635528 0.347686 0.000000
0.670059 0.378272 0.000000
0.702801 0.408719 0.000000
0.736423 0.437091 0.000000
0.769972 0.463006 0.000000
0.804843 0.486344 0.000000
0.840600 0.506484 0.000000
0.879044 0.522930 0.000000
0.918530 0.534593 0.000000
0.959056 0.541821 0.000000
1.000000 0.544120 0.000000
0.000000 0.168615 0.000000
0.087309 0.171637 0.000000
0.170836 0.180100 0.000000
0.249804 0.194661 0.000000
0.322672 0.212904 0.000000
0.382816 0.236593 0.000000
0.437091 0.263577 0.000000
0.485445 0.293241 0.000000
0.529440 0.324749 0.000000
0.568358 0.357044 0.000000
0.604266 0.390344 0.000000
0.638563 0.423039 0.000000
0.671647 0.455220 0.000000
0.706759 0.485445 0.000000
0.742509 0.513194 0.000000
0.780019 0.538128 0.000000
0.819233 0.559478 0.000000
0.862311 0.577066 0.000000
0.907176 0.589721 0.000000
0.953270 0.597584 0.000000
1.000000 0.600071 0.000000
0.000000 0.198357 0.000000
0.080686 0.201354 0.000000
0.158098 0.210466 0.000000
0.231778 0.225366 0.000000
0.300333 0.244462 0.000000
0.357062 0.269062 0.000000
0.408719 0.297199 0.000000
0.455220 0.328353 0.000000
0.498006 0.361594 0.000000
0.535448 0.395489 0.000000
0.570595 0.430434 0.000000
0.604818 0.464672 0.000000
0.638406 0.498006 0.000000
0.675251 0.529440 0.000000
0.713228 0.558633 0.000000
0.753544 0.584757 0.000000
0.796266 0.606912 0.000000
0.844342 0.625251 0.000000
0.894800 0.638638 0.000000
0.946849 0.647097 0.000000
1.000000 0.649608 0.000000
0.000000 0.230544 0.000000
0.073559 0.233486 0.000000
0.144434 0.242425 0.000000
0.212402 0.257286 0.000000
0.275930 0.277026 0.000000
0.329316 0.301613 0.000000
0.378272 0.329941 0.000000
0.423039 0.361437 0.000000
0.464672 0.395182 0.000000
0.501074 0.429865 0.000000
0.535836 0.465641 0.000000
0.570135 0.501074 0.000000
0.604511 0.535448 0.000000
0.642956 0.568358 0.000000
0.683303 0.598834 0.000000
0.726530 0.626164 0.000000
0.772746 0.649376 0.000000
0.825863 0.668432 0.000000
0.881990 0.682391 0.000000
0.940210 0.691182 0.000000
1.000000 0.693886 0.000000
0.000000 0.265856 0.000000
0.066636 0.268810 0.000000
0.131199 0.277963 0.000000
0.193321 0.292688 0.000000
0.251747 0.312382 0.000000
0.301557 0.336456 0.000000
0.347686 0.364472 0.000000
0.390344 0.395734 0.000000
0.430434 0.429405 0.000000
0.465641 0.464164 0.000000
0.500000 0.500000 0.000000
0.534359 0.535836 0.000000
0.569566 0.570595 0.000000
0.609656 0.604266 0.000000
0.652314 0.635528 0.000000
0.698443 0.663544 0.000000
0.748253 0.687618 0.000000
0.806679 0.707312 0.000000
0.868801 0.722037 0.000000
0.933364 0.731190 0.000000
1.000000 0.734144 0.000000
0.000000 0.306114 0.000000
0.059790 0.308818 0.000000
0.118010 0.317609 0.000000
0.174137 0.331568 0.000000
0.227254 0.350624 0.000000
0.273470 0.373836 0.000000
0.316697 0.401166 0.000000
0.357044 0.431642 0.000000
0.395489 0.464552 0.000000
0.429865 0.498926 0.000000
0.464164 0.534359 0.000000
0.498926 0.570135 0.000000
0.535328 0.604818 0.000000
0.576961 0.638563 0.000000
0.621728 0.670059 0.000000
0.670684 0.698387 0.000000
0.724070 0.722974 0.000000
0.787598 0.742714 0.000000
0.855566 0.757575 0.000000
0.926441 0.766514 0.000000
1.000000 0.769456 0.000000
0.000000 0.350392 0.000000
0.053151 0.352903 0.000000
0.105200 0.361362 0.000000
0.155658 0.374749 0.000000
0.203734 0.393088 0.000000
0.246456 0.415243 0.000000
0.286772 0.441367 0.000000
0.324749 0.470560 0.000000
0.361594 0.501994 0.000000
0.395182 0.535328 0.000000
0.429405 0.569566 0.000000
0.464552 0.604511 0.000000
0.501994 0.638406 0.000000
0.544780 0.671647 0.000000
0.591281 0.702801 0.000000
0.642938 0.730938 0.000000
0.699667 0.755538 0.000000
0.768222 0.774634 0.000000
0.841902 0.789534 0.000000
0.919314 0.798646 0.000000
1.000000 0.801643 0.000000
0.000000 0.399929 0.000000
0.046730 0.402416 0.000000
0.092824 0.410279 0.000000
0.137689 0.422934 0.000000
0.180767 0.440522 0.000000
0.219981 0.461872 0.000000
0.257491 0.486806 0.000000
0.293241 0.514555 0.000000
0.328353 0.544780 0.000000
0.361437 0.576961 0.000000
0.395734 0.609656 0.000000
0.431642 0.642956 0.000000
0.470560 0.675251 0.000000
0.514555 0.706759 0.000000
0.562909 0.736423 0.000000
0.617184 0.763407 0.000000
0.677328 0.787096 0.000000
0.750196 0.805339 0.000000
0.829164 0.819900 0.000000
0.912691 0.828363 0.000000
1.000000 0.831385 0.000000
0.000000 0.455880 0.000000
0.040944 0.458179 0.000000
0.081470 0.465407 0.000000
0.120956 0.477070 0.000000
0.159400 0.493516 0.000000
0.195157 0.513656 0.000000
0.230028 0.536994 0.000000
0.263577 0.562909 0.000000
0.297199 0.591281 0.000000
0.329941 0.621728 0.000000
0.364472 0.652314 0.000000
0.401166 0.683303 0.000000
0.441367 0.713228 0.000000
0.486806 0.742509 0.000000
0.536994 0.769972 0.000000
0.593677 0.795125 0.000000
0.656935 0.817374 0.000000
0.733894 0.834496 0.000000
0.817836 0.848357 0.000000
0.906716 0.856405 0.000000
1.000000 0.859464 0.000000
0.000000 0.521155 0.000000
0.035542 0.523169 0.000000
0.070866 0.529732 0.000000
0.105417 0.540038 0.000000
0.139566 0.554739 0.000000
0.172256 0.572751 0.000000
0.204875 0.593677 0.000000
0.236593 0.617184 0.000000
0.269062 0.642938 0.000000
0.301613 0.670684 0.000000
0.336456 0.698443 0.000000
0.373836 0.726530 0.000000
0.415243 0.753544 0.000000
0.461872 0.780019 0.000000
0.513656 0.804843 0.000000
0.572751 0.827744 0.000000
0.639197 0.848019 0.000000
0.719479 0.863254 0.000000
0.807527 0.875767 0.000000
0.901316 0.882439 0.000000
1.000000 0.885057 0.000000
0.000000 0.595681 0.000000
0.030742 0.597345 0.000000
0.061455 0.602934 0.000000
0.091570 0.611620 0.000000
0.121766 0.624030 0.000000
0.151981 0.639197 0.000000
0.182626 0.656935 0.000000
0.212904 0.677328 0.000000
0.244462 0.699667 0.000000
0.277026 0.724070 0.000000
0.312382 0.748253 0.000000
0.350624 0.772746 0.000000
0.393088 0.796266 0.000000
0.440522 0.819233 0.000000
0.493516 0.840600 0.000000
0.554739 0.860434 0.000000
0.624030 0.878234 0.000000
0.707190 0.890880 0.000000
0.799009 0.900890 0.000000
0.896943 0.907005 0.000000
1.000000 0.909508 0.000000
0.000000 0.683431 0.000000
0.027421 0.684987 0.000000
0.054650 0.689734 0.000000
0.082007 0.696926 0.000000
0.109120 0.707190 0.000000
0.136746 0.719479 0.000000
0.165504 0.733894 0.000000
0.194661 0.750196 0.000000
0.225366 0.768222 0.000000
0.257286 0.787598 0.000000
0.292688 0.806679 0.000000
0.331568 0.825863 0.000000
0.374749 0.844342 0.000000
0.422934 0.862311 0.000000
0.477070 0.879044 0.000000
0.540038 0.894583 0.000000
0.611620 0.908430 0.000000
0.696926 0.917993 0.000000
0.791800 0.926478 0.000000
0.893152 0.930964 0.000000
1.000000 0.932711 0.000000
0.000000 0.781921 0.000000
0.024444 0.783233 0.000000
0.049072 0.786638 0.000000
0.073522 0.791800 0.000000
0.099110 0.799009 0.000000
0.124233 0.807527 0.000000
0.151643 0.817836 0.000000
0.180100 0.829164 0.000000
0.210466 0.841902 0.000000
0.242425 0.855566 0.000000
0.277963 0.868801 0.000000
0.317609 0.881990 0.000000
0.361362 0.894800 0.000000
0.410279 0.907176 0.000000
0.465407 0.918530 0.000000
0.529732 0.929134 0.000000
0.602934 0.938545 0.000000
0.689734 0.945350 0.000000
0.786638 0.950928 0.000000
0.890370 0.953933 0.000000
1.000000 0.955543 0.000000
0.000000 0.887878 0.000000
0.022644 0.888593 0.000000
0.046067 0.890370 0.000000
0.069036 0.893152 0.000000
0.092995 0.896943 0.000000
0.117561 0.901316 0.000000
0.143595 0.906716 0.000000
0.171637 0.912691 0.000000
0.201354 0.919314 0.000000
0.233486 0.926441 0.000000
0.268810 0.933364 0.000000
0.308818 0.940210 0.000000
0.352903 0.946849 0.000000
0.402416 0.953270 0.000000
0.458179 0.959056 0.000000
0.523169 0.964458 0.000000
0.597345 0.969258 0.000000
0.684987 0.972579 0.000000
0.783233 0.975556 0.000000
0.888593 0.977356 0.000000
1.000000 0.977983 0.000000
0.000000 1.000000 0.000000
0.022017 1.000000 0.000000
0.044457 1.000000 0.000000
0.067289 1.000000 0.000000
0.090492 1.000000 0.000000
0.114943 1.000000 0.000000
0.140536 1.000000 0.000000
0.168615 1.000000 0.000000
0.198357 1.000000 0.000000
0.230544 1.000000 0.000000
0.265856 1.000000 0.000000
0.306114 1.000000 0.000000
0.350392 1.000000 0.000000
0.399929 1.000000 0.000000
0.455880 1.000000 0.000000
0.521155 1.000000 0.000000
0.595681 1.000000 0.000000
0.683431 1.000000 0.000000
0.781921 1.000000 0.000000
0.887878 1.000000 0.000000
1.000000 1.000000 0.000000
0.000000 0.000000 0.082500
0.112122 0.000000 0.082500
0.218079 0.000000 0.082500
0.316569 0.000000 0.082500
0.404319 0.000000 0.082500
0.478845 0.000000 0.082500
0.544120 0.000000 0.082500
0.600071 0.000000 0.082500
0.649608 0.000000 0.082500
0.693886 0.000000 0.082500
0.734144 0.000000 0.082500
0.769456 0.000000 0.082500
0.801643 0.000000 0.082500
0.831385 0.000000 0.082500
0.859464 0.000000 0.082500
0.885057 0.000000 0.082500
0.909508 0.000000 0.082500
0.932711 0.000000 0.082500
0.955543 0.000000 0.082500
0.977983 0.000000 0.082500
1.000000 0.000000 0.082500
0.000000 0.022017 0.082500
0.111407 0.022644 0.082500
0.216767 0.024444 0.082500
0.315013 0.027421 0.082500
0.402655 0.030742 0.082500
0.476831 0.035542 0.082500
0.541821 0.040944 0.082500
0.597584 0.046730 0.082500
0.647097 0.053151 0.082500
0.691182 0.059790 0.082500
0.731190 0.066636 0.082500
0.766514 0.073559 0.082500
0.798646 0.080686 0.082500
0.828363 0.087309 0.082500
0.856405 0.093284 0.082500
0.882439 0.098684 0.082500
0.907005 0.103057 0.082500
0.930964 0.106848 0.082500
0.953933 0.109630 0.082500
0.977356 0.111407 0.082500
1.000000 0.112122 0.082500
0.000000 0.044457 0.082500
0.109630 0.046067 0.082500
0.213362 0.049072 0.082500
0.310266 0.054650 0.082500
0.397066 0.061455 0.082500
0.470268 0.070866 0.082500
0.534593 0.081470 0.082500
0.589721 0.092824 0.082500
0.638638 0.105200 0.082500
0.682391 0.118010 0.082500
0.722037 0.131199 0.082500
0.757575 0.144434 0.082500
0.789534 0.158098 0.082500
0.819900 0.170836 0.082500
0.848357 0.182164 0.082500
0.875767 0.192473 0.082500
0.900890 0.200991 0.082500
0.926478 0.208200 0.082500
0.950928 0.213362 0.082500
0.975556 0.216767 0.082500
1.000000 0.218079 0.082500
0.000000 0.067289 0.082500
0.106848 0.069036 0.082500
0.208200 0.073522 0.082500
0.303074 0.082007 0.082500
0.388380 0.091570 0.082500
0.459962 0.105417 0.082500
0.522930 0.120956 0.082500
0.577066 0.137689 0.082500
0.625251 0.155658 0.082500
0.668432 0.174137 0.082500
0.707312 0.193321 0.082500
0.742714 0.212402 0.082500
0.774634 0.231778 0.082500
0.805339 0.249804 0.082500
0.834496 0.266106 0.082500
0.863254 0.280521 0.082500
0.890880 0.292810 0.082500
0.917993 0.303074 0.082500
0.945350 0.310266 0.082500
0.972579 0.315013 0.082500
1.000000 0.316569 0.082500
0.000000 0.090492 0.082500
0.103057 0.092995 0.082500
0.200991 0.099110 0.082500
0.292810 0.109120 0.082500
0.375970 0.121766 0.082500
0.445261 0.139566 0.082500
0.506484 0.159400 0.082500
0.559478 0.180767 0.082500
0.606912 0.203734 0.082500
0.649376 0.227254 0.082500
0.687618 0.251747 0.082500
0.722974 0.275930 0.082500
0.755538 0.300333 0.082500
0.787096 0.322672 0.082500
0.817374 0.343065 0.082500
0.848019 0.360803 0.082500
0.878234 0.375970 0.082500
0.908430 0.388380 0.082500
0.938545 0.397066 0.082500
0.969258 0.402655 0.082500
1.000000 0.404319 0.082500
0.000000 0.114943 0.082500
0.098684 0.117561 0.082500
0.192473 0.124233 0.082500
0.280521 0.136746 0.082500
0.360803 0.151981 0.082500
0.427249 0.172256 0.082500
0.486344 0.195157 0.082500
0.538128 0.219981 0.082500
0.584757 0.246456 0.082500
0.626164 0.273470 0.082500
0.663544 0.301557 0.082500
0.698387 0.329316 0.082500
0.730938 0.357062 0.082500
0.763407 0.382816 0.082500
0.795125 0.406323 0.082500
0.827744 0.427249 0.082500
0.860434 0.445261 0.082500
0.894583 0.459962 0.082500
0.929134 0.470268 0.082500
0.964458 0.476831 0.082500
1.000000 0.478845 0.082500
0.000000 0.140536 0.082500
0.093284 0.143595 0.082500
0.182164 0.151643 0.082500
0.266106 0.165504 0.082500
0.343065 0.182626 0.082500
0.406323 0.204875 0.082500
0.463006 0.230028 0.082500
0.513194 0.257491 0.082500
0.558633 0.286772 0.082500
0.598834 0.316697 0.082500
0.635528 0.347686 0.082500
0.670059 0.378272 0.082500
0.702801 0.408719 0.082500
0.736423 0.437091 0.082500
0.769972 0.463006 0.082500
0.804843 0.486344 0.082500
0.840600 0.506484 0.082500
0.879044 0.522930 0.082500
0.918530 0.534593 0.082500
0.959056 0.541821 0.082500
1.000000 0.544120 0.082500
0.000000 0.168615 0.082500
0.087309 0.171637 0.082500
0.170836 0.180100 0.082500
0.249804 0.194661 0.082500
0.322672 0.212904 0.082500
0.382816 0.236593 0.082500
0.437091 0.263577 0.082500
0.485445 0.293241 0.082500
0.529440 0.324749 0.082500
0.568358 0.357044 0.082500
0.604266 0.390344 0.082500
0.638563 0.423039 0.082500
0.671647 0.455220 0.082500
0.706759 0.485445 0.082500
0.742509 0.513194 0.082500
0.780019 0.538128 0.082500
0.819233 0.559478 0.082500
0.862311 0.577066 0.082500
0.907176 0.589721 0.082500
0.953270 0.597584 0.082500
1.000000 0.600071 0.082500
0.000000 0.198357 0.082500
0.080686 0.201354 0.082500
0.158098 0.210466 0.082500
0.231778 0.225366 0.082500
0.300333 0.244462 0.082500
0.357062 0.269062 0.082500
0.408719 0.297199 0.082500
0.455220 0.328353 0.082500
0.498006 0.361594 0.082500
0.535448 0.395489 0.082500
0.570595 0.430434 0.082500
0.604818 0.464672 0.082500
0.638406 0.498006 0.082500
0.675251 0.529440 0.082500
0.713228 0.558633 0.082500
0.753544 0.584757 0.082500
0.796266 0.606912 0.082500
0.844342 0.625251 0.082500
0.894800 0.638638 0.082500
0.946849 0.647097 0.082500
1.000000 0.649608 0.082500
0.000000 0.230544 0.082500
0.073559 0.233486 0.082500
0.144434 0.242425 0.082500
0.212402 0.257286 0.082500
0.275930 0.277026 0.082500
0.329316 0.301613 0.082500
0.378272 0.329941 0.082500
0.423039 0.361437 0.082500
0.464672 0.395182 0.082500
0.501074 0.429865 0.082500
0.535836 0.465641 0.082500
0.570135 0.501074 0.082500
0.604511 0.535448 0.082500
0.642956 0.568358 0.082500
0.683303 0.598834 0.082500
0.726530 0.626164 0.082500
0.772746 0.649376 0.082500
0.825863 0.668432 0.082500
0.881990 0.682391 0.082500
0.940210 0.691182 0.082500
1.000000 0.693886 0.082500
0.000000 0.265856 0.082500
0.066636 0.268810 0.082500
0.131199 0.277963 0.082500
0.193321 0.292688 0.082500
0.251747 0.312382 0.082500
0.301557 0.336456 0.082500
0.347686 0.364472 0.082500
0.390344 0.395734 0.082500
0.430434 0.429405 0.082500
0.465641 0.464164 0.082500
0.500000 0.500000 0.082500
0.534359 0.535836 0.082500
0.569566 0.570595 0.082500
0.609656 0.604266 0.082500
0.652314 0.635528 0.082500
0.698443 0.663544 0.082500
0.748253 0.687618 0.082500
0.806679 0.707312 0.082500
0.868801 0.722037 0.082500
0.933364 0.731190 0.082500
1.000000 0.734144 0.082500
0.000000 0.306114 0.082500
0.059790 0.308818 0.082500
0.118010 0.317609 0.082500
0.174137 0.331568 0.082500
0.227254 0.350624 0.082500
0.273470 0.373836 0.082500
0.316697 0.401166 0.082500
0.357044 0.431642 0.082500
0.395489 0.464552 0.082500
0.429865 0.498926 0.082500
0.464164 0.534359 0.082500
0.498926 0.570135 0.082500
0.535328 0.604818 0.082500
0.576961 0.638563 0.082500
0.621728 0.670059 0.082500
0.670684 0.698387 0.082500
0.724070 0.722974 0.082500
0.787598 0.742714 0.082500
0.855566 0.757575 0.082500
0.926441 0.766514 0.082500
1.000000 0.769456 0.082500
0.000000 0.350392 0.082500
0.053151 0.352903 0.082500
0.105200 0.361362 0.082500
0.155658 0.374749 0.082500
0.203734 0.393088 0.082500
0.246456 0.415243 0.082500
0.286772 0.441367 0.082500
0.324749 0.470560 0.082500
0.361594 0.501994 0.082500
0.395182 0.535328 0.082500
0.429405 0.569566 0.082500
0.464552 0.604511 0.082500
0.501994 0.638406 0.082500
0.544780 0.671647 0.082500
0.591281 0.702801 0.082500
0.642938 0.730938 0.082500
0.699667 0.755538 0.082500
0.768222 0.774634 0.082500
0.841902 0.789534 0.082500
0.919314 0.798646 0.082500
1.000000 0.801643 0.082500
0.000000 0.399929 0.082500
0.046730 0.402416 0.082500
0.092824 0.410279 0.082500
0.137689 0.422934 0.082500
0.180767 0.440522 0.082500
0.219981 0.461872 0.082500
0.257491 0.486806 0.082500
0.293241 0.514555 0.082500
0.328353 0.544780 0.082500
0.361437 0.576961 0.082500
0.395734 0.609656 0.082500
0.431642 0.642956 0.082500
0.470560 0.675251 0.082500
0.514555 0.706759 0.082500
0.562909 0.736423 0.082500
0.617184 0.763407 0.082500
0.677328 0.787096 0.082500
0.750196 0.805339 0.082500
0.829164 0.819900 0.082500
0.912691 0.828363 0.082500
1.000000 0.831385 0.082500
0.000000 0.455880 0.082500
0.040944 0.458179 0.082500
0.081470 0.465407 0.082500
0.120956 0.477070 0.082500