# vtk DataFile Version 2.0
Mesh for Fierro
ASCII 
DATASET UNSTRUCTURED_GRID

POINTS 2205 float
0.000000 0.000000 0.000000
0.284100 0.000000 0.000000
0.488560 0.000000 0.000000
0.616148 0.000000 0.000000
0.699006 0.000000 0.000000
0.757710 0.000000 0.000000
0.802366 0.000000 0.000000
0.834963 0.000000 0.000000
0.859934 0.000000 0.000000
0.881052 0.000000 0.000000
0.898368 0.000000 0.000000
0.913667 0.000000 0.000000
0.926412 0.000000 0.000000
0.938088 0.000000 0.000000
0.948593 0.000000 0.000000
0.958483 0.000000 0.000000
0.967527 0.000000 0.000000
0.975735 0.000000 0.000000
0.983805 0.000000 0.000000
0.991990 0.000000 0.000000
1.000000 0.000000 0.000000
0.000000 0.008010 0.000000
0.281934 0.009898 0.000000
0.485471 0.015200 0.000000
0.613039 0.024593 0.000000
0.695341 0.036673 0.000000
0.752666 0.050860 0.000000
0.796384 0.067652 0.000000
0.827507 0.086774 0.000000
0.852421 0.107515 0.000000
0.872364 0.128778 0.000000
0.889414 0.149387 0.000000
0.904146 0.170697 0.000000
0.917085 0.192564 0.000000
0.928711 0.212540 0.000000
0.939553 0.229839 0.000000
0.950188 0.245266 0.000000
0.960485 0.257555 0.000000
0.970494 0.267887 0.000000
0.980194 0.276106 0.000000
0.990102 0.281934 0.000000
1.000000 0.284100 0.000000
0.000000 0.016195 0.000000
0.276106 0.019806 0.000000
0.477719 0.029999 0.000000
0.605060 0.048209 0.000000
0.686993 0.071434 0.000000
0.744849 0.099224 0.000000
0.787093 0.132843 0.000000
0.816348 0.168562 0.000000
0.838661 0.206932 0.000000
0.856724 0.244005 0.000000
0.871852 0.280583 0.000000
0.884719 0.316628 0.000000
0.896072 0.351979 0.000000
0.907084 0.383159 0.000000
0.918127 0.409865 0.000000
0.930037 0.432945 0.000000
0.942691 0.451230 0.000000
0.956041 0.466417 0.000000
0.970001 0.477719 0.000000
0.984800 0.485471 0.000000
1.000000 0.488560 0.000000
0.000000 0.024265 0.000000
0.267887 0.029506 0.000000
0.466417 0.043959 0.000000
0.592267 0.070034 0.000000
0.672813 0.102496 0.000000
0.728074 0.140510 0.000000
0.765562 0.185946 0.000000
0.792104 0.232263 0.000000
0.810308 0.282209 0.000000
0.825103 0.328001 0.000000
0.836706 0.373571 0.000000
0.846872 0.416734 0.000000
0.855633 0.458115 0.000000
0.865921 0.494460 0.000000
0.878080 0.525816 0.000000
0.892920 0.552766 0.000000
0.910036 0.574793 0.000000
0.929966 0.592267 0.000000
0.951791 0.605060 0.000000
0.975407 0.613039 0.000000
1.000000 0.616148 0.000000
0.000000 0.032473 0.000000
0.257555 0.039515 0.000000
0.451230 0.057309 0.000000
0.574793 0.089964 0.000000
0.654971 0.130290 0.000000
0.707973 0.178228 0.000000
0.740890 0.233896 0.000000
0.763613 0.287996 0.000000
0.776522 0.346403 0.000000
0.788111 0.397079 0.000000
0.794928 0.448038 0.000000
0.801445 0.494058 0.000000
0.807324 0.536847 0.000000
0.817286 0.573261 0.000000
0.830352 0.605096 0.000000
0.847978 0.632262 0.000000
0.869710 0.654971 0.000000
0.897504 0.672813 0.000000
0.928566 0.686993 0.000000
0.963327 0.695341 0.000000
1.000000 0.699006 0.000000
0.000000 0.041517 0.000000
0.245266 0.049812 0.000000
0.432945 0.069963 0.000000
0.552766 0.107080 0.000000
0.632262 0.152022 0.000000
0.681562 0.204636 0.000000
0.709792 0.263292 0.000000
0.729484 0.320563 0.000000
0.737838 0.379723 0.000000
0.745907 0.432177 0.000000
0.748208 0.483553 0.000000
0.750607 0.530827 0.000000
0.752735 0.574981 0.000000
0.761033 0.615061 0.000000
0.774853 0.650500 0.000000
0.795364 0.681562 0.000000
0.821772 0.707973 0.000000
0.859490 0.728074 0.000000
0.900776 0.744849 0.000000
0.949140 0.752666 0.000000
1.000000 0.757710 0.000000
0.000000 0.051407 0.000000
0.229839 0.060447 0.000000
0.409865 0.081873 0.000000
0.525816 0.121920 0.000000
0.605096 0.169648 0.000000
0.650500 0.225147 0.000000
0.675529 0.284984 0.000000
0.691649 0.343793 0.000000
0.696424 0.402792 0.000000
0.700495 0.455679 0.000000
0.698332 0.506277 0.000000
0.696908 0.553086 0.000000
0.695644 0.596831 0.000000
0.702108 0.637828 0.000000
0.715016 0.675529 0.000000
0.736708 0.709792 0.000000
0.766104 0.740890 0.000000
0.814054 0.765562 0.000000
0.867157 0.787093 0.000000
0.932348 0.796384 0.000000
1.000000 0.802366 0.000000
0.000000 0.061912 0.000000
0.212540 0.071289 0.000000
0.383159 0.092916 0.000000
0.494460 0.134079 0.000000
0.573261 0.182714 0.000000
0.615061 0.238967 0.000000
0.637828 0.297892 0.000000
0.650725 0.356521 0.000000
0.652834 0.414007 0.000000
0.652960 0.466448 0.000000
0.647183 0.515917 0.000000
0.642439 0.562635 0.000000
0.638430 0.607050 0.000000
0.643479 0.650725 0.000000
0.656207 0.691649 0.000000
0.679437 0.729484 0.000000
0.712004 0.763613 0.000000
0.767737 0.792104 0.000000
0.831438 0.816348 0.000000
0.913226 0.827507 0.000000
1.000000 0.834963 0.000000
0.000000 0.073588 0.000000
0.192564 0.082915 0.000000
0.351979 0.103928 0.000000
0.458115 0.144367 0.000000
0.536847 0.192676 0.000000
0.574981 0.247265 0.000000
0.596831 0.304356 0.000000
0.607050 0.361570 0.000000
0.607486 0.417631 0.000000
0.603942 0.468959 0.000000
0.595278 0.517049 0.000000
0.588135 0.563187 0.000000
0.582369 0.607486 0.000000
0.585993 0.652834 0.000000
0.597208 0.696424 0.000000
0.620277 0.737838 0.000000
0.653597 0.776522 0.000000
0.717791 0.810308 0.000000
0.793068 0.838661 0.000000
0.892485 0.852421 0.000000
1.000000 0.859934 0.000000
0.000000 0.086333 0.000000
0.170697 0.095854 0.000000
0.316628 0.115281 0.000000
0.416734 0.153128 0.000000
0.494058 0.198555 0.000000
0.530827 0.249393 0.000000
0.553086 0.303092 0.000000
0.562635 0.357561 0.000000
0.563187 0.411865 0.000000
0.557320 0.461982 0.000000
0.547257 0.510040 0.000000
0.538018 0.557320 0.000000
0.531041 0.603942 0.000000
0.533552 0.652960 0.000000
0.544321 0.700495 0.000000
0.567823 0.745907 0.000000
0.602921 0.788111 0.000000
0.671999 0.825103 0.000000
0.755995 0.856724 0.000000
0.871222 0.872364 0.000000
1.000000 0.881052 0.000000
0.000000 0.101632 0.000000
0.149387 0.110586 0.000000
0.280583 0.128148 0.000000
0.373571 0.163294 0.000000
0.448038 0.205072 0.000000
0.483553 0.251792 0.000000
0.506277 0.301668 0.000000
0.515917 0.352817 0.000000
0.517049 0.404722 0.000000
0.510040 0.452743 0.000000
0.500000 0.500000 0.000000
0.489960 0.547257 0.000000
0.482951 0.595278 0.000000
0.484083 0.647183 0.000000
0.493723 0.698332 0.000000
0.516447 0.748208 0.000000
0.551962 0.794928 0.000000
0.626429 0.836706 0.000000
0.719417 0.871852 0.000000
0.850613 0.889414 0.000000
1.000000 0.898368 0.000000
0.000000 0.118948 0.000000
0.128778 0.127636 0.000000
0.244005 0.143276 0.000000
0.328001 0.174897 0.000000
0.397079 0.211889 0.000000
0.432177 0.254093 0.000000
0.455679 0.299505 0.000000
0.466448 0.347040 0.000000
0.468959 0.396058 0.000000
0.461982 0.442680 0.000000
0.452743 0.489960 0.000000
0.442680 0.538018 0.000000
0.436813 0.588135 0.000000
0.437365 0.642439 0.000000
0.446914 0.696908 0.000000
0.469173 0.750607 0.000000
0.505942 0.801445 0.000000
0.583266 0.846872 0.000000
0.683372 0.884719 0.000000
0.829303 0.904146 0.000000
1.000000 0.913667 0.000000
0.000000 0.140066 0.000000
0.107515 0.147579 0.000000
0.206932 0.161339 0.000000
0.282209 0.189692 0.000000
0.346403 0.223478 0.000000
0.379723 0.262162 0.000000
0.402792 0.303576 0.000000
0.414007 0.347166 0.000000
0.417631 0.392514 0.000000
0.411865 0.436813 0.000000
0.404722 0.482951 0.000000
0.396058 0.531041 0.000000
0.392514 0.582369 0.000000
0.392950 0.638430 0.000000
0.403169 0.695644 0.000000
0.425019 0.752735 0.000000
0.463153 0.807324 0.000000
0.541885 0.855633 0.000000
0.648021 0.896072 0.000000
0.807436 0.917085 0.000000
1.000000 0.926412 0.000000
0.000000 0.165037 0.000000
0.086774 0.172493 0.000000
0.168562 0.183652 0.000000
0.232263 0.207896 0.000000
0.287996 0.236387 0.000000
0.320563 0.270516 0.000000
0.343793 0.308351 0.000000
0.356521 0.349275 0.000000
0.361570 0.392950 0.000000
0.357561 0.437365 0.000000
0.352817 0.484083 0.000000
0.347040 0.533552 0.000000
0.347166 0.585993 0.000000
0.349275 0.643479 0.000000
0.362172 0.702108 0.000000
0.384939 0.761033 0.000000
0.426739 0.817286 0.000000
0.505540 0.865921 0.000000
0.616841 0.907084 0.000000
0.787460 0.928711 0.000000
1.000000 0.938088 0.000000
0.000000 0.197634 0.000000
0.067652 0.203616 0.000000
0.132843 0.212907 0.000000
0.185946 0.234438 0.000000
0.233896 0.259110 0.000000
0.263292 0.290208 0.000000
0.284984 0.324471 0.000000
0.297892 0.362172 0.000000
0.304356 0.403169 0.000000
0.303092 0.446914 0.000000
0.301668 0.493723 0.000000
0.299505 0.544321 0.000000
0.303576 0.597208 0.000000
0.308351 0.656207 0.000000
0.324471 0.715016 0.000000
0.349500 0.774853 0.000000
0.394904 0.830352 0.000000
0.474184 0.878080 0.000000
0.590135 0.918127 0.000000
0.770161 0.939553 0.000000
1.000000 0.948593 0.000000
0.000000 0.242290 0.000000
0.050860 0.247334 0.000000
0.099224 0.255151 0.000000
0.140510 0.271926 0.000000
0.178228 0.292027 0.000000
0.204636 0.318438 0.000000
0.225147 0.349500 0.000000
0.238967 0.384939 0.000000
0.247265 0.425019 0.000000
0.249393 0.469173 0.000000
0.251792 0.516447 0.000000
0.254093 0.567823 0.000000
0.262162 0.620277 0.000000
0.270516 0.679437 0.000000
0.290208 0.736708 0.000000
0.318438 0.795364 0.000000
0.367738 0.847978 0.000000
0.447234 0.892920 0.000000
0.567055 0.930037 0.000000
0.754734 0.950188 0.000000
1.000000 0.958483 0.000000
0.000000 0.300994 0.000000
0.036673 0.304659 0.000000
0.071434 0.313007 0.000000
0.102496 0.327187 0.000000
0.130290 0.345029 0.000000
0.152022 0.367738 0.000000
0.169648 0.394904 0.000000
0.182714 0.426739 0.000000
0.192676 0.463153 0.000000
0.198555 0.505942 0.000000
0.205072 0.551962 0.000000
0.211889 0.602921 0.000000
0.223478 0.653597 0.000000
0.236387 0.712004 0.000000
0.259110 0.766104 0.000000
0.292027 0.821772 0.000000
0.345029 0.869710 0.000000
0.425207 0.910036 0.000000
0.548770 0.942691 0.000000
0.742445 0.960485 0.000000
1.000000 0.967527 0.000000
0.000000 0.383852 0.000000
0.024593 0.386961 0.000000
0.048209 0.394940 0.000000
0.070034 0.407733 0.000000
0.089964 0.425207 0.000000
0.107080 0.447234 0.000000
0.121920 0.474184 0.000000
0.134079 0.505540 0.000000
0.144367 0.541885 0.000000
[...]
POINT_DATA 2205 
VECTORS pos float 
0.000000 0.000000 0.000000
0.284100 0.000000 0.000000
0.488560 0.000000 0.000000
0.616148 0.000000 0.000000
0.699006 0.000000 0.000000
0.757710 0.000000 0.000000
0.802366 0.000000 0.000000
0.834963 0.000000 0.000000
0.859934 0.000000 0.000000
0.881052 0.000000 0.000000
0.898368 0.000000 0.000000
0.913667 0.000000 0.000000
0.926412 0.000000 0.000000
0.938088 0.000000 0.000000
0.948593 0.000000 0.000000
0.958483 0.000000 0.000000
0.967527 0.000000 0.000000
0.975735 0.000000 0.000000
0.983805 0.000000 0.000000
0.991990 0.000000 0.000000
1.000000 0.000000 0.000000
0.000000 0.008010 0.000000
0.281934 0.009898 0.000000
0.485471 0.015200 0.000000
0.613039 0.024593 0.000000
0.695341 0.036673 0.000000
0.752666 0.050860 0.000000
0.796384 0.067652 0.000000
0.827507 0.086774 0.000000
0.852421 0.107515 0.000000
0.872364 0.128778 0.000000
0.889414 0.149387 0.000000
0.904146 0.170697 0.000000
0.917085 0.192564 0.000000
0.928711 0.212540 0.000000
0.939553 0.229839 0.000000
0.950188 0.245266 0.000000
0.960485 0.257555 0.000000
0.970494 0.267887 0.000000
0.980194 0.276106 0.000000
0.990102 0.281934 0.000000
1.000000 0.284100 0.000000
0.000000 0.016195 0.000000
0.276106 0.019806 0.000000
0.477719 0.029999 0.000000
0.605060 0.048209 0.000000
0.686993 0.071434 0.000000
0.744849 0.099224 0.000000
0.787093 0.132843 0.000000
0.816348 0.168562 0.000000
0.838661 0.206932 0.000000
0.856724 0.244005 0.000000
0.871852 0.280583 0.000000
0.884719 0.316628 0.000000
0.896072 0.351979 0.000000
0.907084 0.383159 0.000000
0.918127 0.409865 0.000000
0.930037 0.432945 0.000000
0.942691 0.451230 0.000000
0.956041 0.466417 0.000000
0.970001 0.477719 0.000000
0.984800 0.485471 0.000000
1.000000 0.488560 0.000000
0.000000 0.024265 0.000000
0.267887 0.029506 0.000000
0.466417 0.043959 0.000000
0.592267 0.070034 0.000000
0.672813 0.102496 0.000000
0.728074 0.140510 0.000000
0.765562 0.185946 0.000000
0.792104 0.232263 0.000000
0.810308 0.282209 0.000000
0.825103 0.328001 0.000000
0.836706 0.373571 0.000000
0.846872 0.416734 0.000000
0.855633 0.458115 0.000000
0.865921 0.494460 0.000000
0.878080 0.525816 0.000000
0.892920 0.552766 0.000000
0.910036 0.574793 0.000000
0.929966 0.592267 0.000000
0.951791 0.605060 0.000000
0.975407 0.613039 0.000000
1.000000 0.616148 0.000000
0.000000 0.032473 0.000000
0.257555 0.039515 0.000000
0.451230 0.057309 0.000000
0.574793 0.089964 0.000000
0.654971 0.130290 0.000000
0.707973 0.178228 0.000000
0.740890 0.233896 0.000000
0.763613 0.287996 0.000000
0.776522 0.346403 0.000000
0.788111 0.397079 0.000000
0.794928 0.448038 0.000000
0.801445 0.494058 0.000000
0.807324 0.536847 0.000000
0.817286 0.573261 0.000000
0.830352 0.605096 0.000000
0.847978 0.632262 0.000000
0.869710 0.654971 0.000000
0.897504 0.672813 0.000000
0.928566 0.686993 0.000000
0.963327 0.695341 0.000000
1.000000 0.699006 0.000000
0.000000 0.041517 0.000000
0.245266 0.049812 0.000000
0.432945 0.069963 0.000000
0.552766 0.107080 0.000000
0.632262 0.152022 0.000000
0.681562 0.204636 0.000000
0.709792 0.263292 0.000000
0.729484 0.320563 0.000000
0.737838 0.379723 0.000000
0.745907 0.432177 0.000000
0.748208 0.483553 0.000000
0.750607 0.530827 0.000000
0.752735 0.574981 0.000000
0.761033 0.615061 0.000000
0.774853 0.650500 0.000000
0.795364 0.681562 0.000000
0.821772 0.707973 0.000000
0.859490 0.728074 0.000000
0.900776 0.744849 0.000000
0.949140 0.752666 0.000000
1.000000 0.757710 0.000000
0.000000 0.051407 0.000000
0.229839 0.060447 0.000000
0.409865 0.081873 0.000000
0.525816 0.121920 0.000000
0.605096 0.169648 0.000000
0.650500 0.225147 0.000000
0.675529 0.284984 0.000000
0.691649 0.343793 0.000000
0.696424 0.402792 0.000000
0.700495 0.455679 0.000000
0.698332 0.506277 0.000000
0.696908 0.553086 0.000000
0.695644 0.596831 0.000000
0.702108 0.637828 0.000000
0.715016 0.675529 0.000000
0.736708 0.709792 0.000000
0.766104 0.740890 0.000000
0.814054 0.765562 0.000000
0.867157 0.787093 0.000000
0.932348 0.796384 0.000000
1.000000 0.802366 0.000000
0.000000 0.061912 0.000000
0.212540 0.071289 0.000000
0.383159 0.092916 0.000000
0.494460 0.134079 0.000000
0.573261 0.182714 0.000000
0.615061 0.238967 0.000000
0.637828 0.297892 0.000000
0.650725 0.356521 0.000000
0.652834 0.414007 0.000000
0.652960 0.466448 0.000000
0.647183 0.515917 0.000000
0.642439 0.562635 0.000000
0.638430 0.607050 0.000000
0.643479 0.650725 0.000000
0.656207 0.691649 0.000000
0.679437 0.729484 0.000000
0.712004 0.763613 0.000000
0.767737 0.792104 0.000000
0.831438 0.816348 0.000000
0.913226 0.827507 0.000000
1.000000 0.834963 0.000000
0.000000 0.073588 0.000000
0.192564 0.082915 0.000000
0.351979 0.103928 0.000000
0.458115 0.144367 0.000000
0.536847 0.192676 0.000000
0.574981 0.247265 0.000000
0.596831 0.304356 0.000000
0.607050 0.361570 0.000000
0.607486 0.417631 0.000000
0.603942 0.468959 0.000000
0.595278 0.517049 0.000000
0.588135 0.563187 0.000000
0.582369 0.607486 0.000000
0.585993 0.652834 0.000000
0.597208 0.696424 0.000000
0.620277 0.737838 0.000000
0.653597 0.776522 0.000000
0.717791 0.810308 0.000000
0.793068 0.838661 0.000000
0.892485 0.852421 0.000000
1.000000 0.859934 0.000000
0.000000 0.086333 0.000000
0.170697 0.095854 0.000000
0.316628 0.115281 0.000000
0.416734 0.153128 0.000000
0.494058 0.198555 0.000000
0.530827 0.249393 0.000000
0.553086 0.303092 0.000000
0.562635 0.357561 0.000000
0.563187 0.411865 0.000000
0.557320 0.461982 0.000000
0.547257 0.510040 0.000000
0.538018 0.557320 0.000000
0.531041 0.603942 0.000000
0.533552 0.652960 0.000000
0.544321 0.700495 0.000000
0.567823 0.745907 0.000000
0.602921 0.788111 0.000000
0.671999 0.825103 0.000000
0.755995 0.856724 0.000000
0.871222 0.872364 0.000000
1.000000 0.881052 0.000000
0.000000 0.101632 0.000000
0.149387 0.110586 0.000000
0.280583 0.128148 0.000000
0.373571 0.163294 0.000000
0.448038 0.205072 0.000000
0.483553 0.251792 0.000000
0.506277 0.301668 0.000000
0.515917 0.352817 0.000000
0.517049 0.404722 0.000000
0.510040 0.452743 0.000000
0.500000 0.500000 0.000000
0.489960 0.547257 0.000000
0.482951 0.595278 0.000000
0.484083 0.647183 0.000000
0.493723 0.698332 0.000000
0.516447 0.748208 0.000000
0.551962 0.794928 0.000000
0.626429 0.836706 0.000000
0.719417 0.871852 0.000000
0.850613 0.889414 0.000000
1.000000 0.898368 0.000000
0.000000 0.118948 0.000000
0.128778 0.127636 0.000000
0.244005 0.143276 0.000000
0.328001 0.174897 0.000000
0.397079 0.211889 0.000000
0.432177 0.254093 0.000000
0.455679 0.299505 0.000000
0.466448 0.347040 0.000000
0.468959 0.396058 0.000000
0.461982 0.442680 0.000000
0.452743 0.489960 0.000000
0.442680 0.538018 0.000000
0.436813 0.588135 0.000000
0.437365 0.642439 0.000000
0.446914 0.696908 0.000000
0.469173 0.750607 0.000000
0.505942 0.801445 0.000000
0.583266 0.846872 0.000000
0.683372 0.884719 0.000000
0.829303 0.904146 0.000000
1.000000 0.913667 0.000000
0.000000 0.140066 0.000000
0.107515 0.147579 0.000000
0.206932 0.161339 0.000000
0.282209 0.189692 0.000000
0.346403 0.223478 0.000000
0.379723 0.262162 0.000000
0.402792 0.303576 0.000000
0.414007 0.347166 0.000000
0.417631 0.392514 0.000000
0.411865 0.436813 0.000000
0.404722 0.482951 0.000000
0.396058 0.531041 0.000000
0.392514 0.582369 0.000000
0.392950 0.638430 0.000000
0.403169 0.695644 0.000000
0.425019 0.752735 0.000000
0.463153 0.807324 0.000000
0.541885 0.855633 0.000000
0.648021 0.896072 0.000000
0.807436 0.917085 0.000000
1.000000 0.926412 0.000000
0.000000 0.165037 0.000000
0.086774 0.172493 0.000000
0.168562 0.183652 0.000000
0.232263 0.207896 0.000000
0.287996 0.236387 0.000000
0.320563 0.270516 0.000000
0.343793 0.308351 0.000000
0.356521 0.349275 0.000000
0.361570 0.392950 0.000000
0.357561 0.437365 0.000000
0.352817 0.484083 0.000000
0.347040 0.533552 0.000000
0.347166 0.585993 0.000000
0.349275 0.643479 0.000000
0.362172 0.702108 0.000000
0.384939 0.761033 0.000000
0.426739 0.817286 0.000000
0.505540 0.865921 0.000000
0.616841 0.907084 0.000000
0.787460 0.928711 0.000000
1.000000 0.938088 0.000000
0.000000 0.197634 0.000000
0.067652 0.203616 0.000000
0.132843 0.212907 0.000000
0.185946 0.234438 0.000000
0.233896 0.259110 0.000000
0.263292 0.290208 0.000000
0.284984 0.324471 0.000000
0.297892 0.362172 0.000000
0.304356 0.403169 0.000000
0.303092 0.446914 0.000000
0.301668 0.493723 0.000000
0.299505 0.544321 0.000000
0.303576 0.597208 0.000000
0.308351 0.656207 0.000000
0.324471 0.715016 0.000000
0.349500 0.774853 0.000000
0.394904 0.830352 0.000000
0.474184 0.878080 0.000000
0.590135 0.918127 0.000000
0.770161 0.939553 0.000000
1.000000 0.948593 0.000000
0.000000 0.242290 0.000000
0.050860 0.247334 0.000000
0.099224 0.255151 0.000000
0.140510 0.271926 0.000000
0.178228 0.292027 0.000000
0.204636 0.318438 0.000000
0.225147 0.349500 0.000000
0.238967 0.384939 0.000000
0.247265 0.425019 0.000000
0.249393 0.469173 0.000000
0.251792 0.516447 0.000000
0.254093 0.567823 0.000000
0.262162 0.620277 0.000000
0.270516 0.679437 0.000000
0.290208 0.736708 0.000000
0.318438 0.795364 0.000000
0.367738 0.847978 0.000000
0.447234 0.892920 0.000000
0.567055 0.930037 0.000000
0.754734 0.950188 0.000000
1.000000 0.958483 0.000000
0.000000 0.300994 0.000000
0.036673 0.304659 0.000000
0.071434 0.313007 0.000000
0.102496 0.327187 0.000000
0.130290 0.345029 0.000000
0.152022 0.367738 0.000000
0.169648 0.394904 0.000000
0.182714 0.426739 0.000000
0.192676 0.463153 0.000000
0.198555 0.505942 0.000000
0.205072 0.551962 0.000000
0.211889 0.602921 0.000000
0.223478 0.653597 0.000000
0.236387 0.712004 0.000000
0.259110 0.766104 0.000000
0.292027 0.821772 0.000000
0.345029 0.869710 0.000000
0.425207 0.910036 0.000000
0.548770 0.942691 0.000000
0.742445 0.960485 0.000000
1.000000 0.967527 0.000000
0.000000 0.383852 0.000000
0.024593 0.386961 0.000000
0.048209 0.394940 0.000000
0.070034 0.407733 0.000000
0.089964 0.425207 0.000000
0.107080 0.447234 0.000000
0.121920 0.474184 0.000000
0.134079 0.505540 0.000000
0.144367 0.541885 0.000000
0.153128 0.583266 0.000000
0.163294 0.626429 0.000000
0.174897 0.671999 0.000000
0.189692 0.717791 0.000000
0.207896 0.767737 0.000000
0.234438 0.814054 0.000000
0.271926 0.859490 0.000000
0.327187 0.897504 0.000000
0.407733 0.929966 0.000000
0.533583 0.956041 0.000000
0.732113 0.970494 0.000000
1.000000 0.975735 0.000000
0.000000 0.511440 0.000000
0.015200 0.514529 0.000000
0.029999 0.522281 0.000000
0.043959 0.533583 0.000000
0.057309 0.548770 0.000000
0.069963 0.567055 0.000000
0.081873 0.590135 0.000000
0.092916 0.616841 0.000000
0.103928 0.648021 0.000000
0.115281 0.683372 0.000000
0.128148 0.719417 0.000000
0.143276 0.755995 0.000000
0.161339 0.793068 0.000000
0.183652 0.831438 0.000000
0.212907 0.867157 0.000000
0.255151 0.900776 0.000000
0.313007 0.928566 0.000000
0.394940 0.951791 0.000000
0.522281 0.970001 0.000000
0.723894 0.980194 0.000000
1.000000 0.983805 0.000000
0.000000 0.715900 0.000000
0.009898 0.718066 0.000000
0.019806 0.723894 0.000000
0.029506 0.732113 0.000000
0.039515 0.742445 0.000000
0.049812 0.754734 0.000000
0.060447 0.770161 0.000000
0.071289 0.787460 0.000000
0.082915 0.807436 0.000000
0.095854 0.829303 0.000000
0.110586 0.850613 0.000000
0.127636 0.871222 0.000000
0.147579 0.892485 0.000000
0.172493 0.913226 0.000000
0.203616 0.932348 0.000000
0.247334 0.949140 0.000000
0.304659 0.963327 0.000000
0.386961 0.975407 0.000000
0.514529 0.984800 0.000000
0.718066 0.990102 0.000000
1.000000 0.991990 0.000000
0.000000 1.000000 0.000000
0.008010 1.000000 0.000000
0.016195 1.000000 0.000000
0.024265 1.000000 0.000000
0.032473 1.000000 0.000000
0.041517 1.000000 0.000000
0.051407 1.000000 0.000000
0.061912 1.000000 0.000000
0.073588 1.000000 0.000000
0.086333 1.000000 0.000000
0.101632 1.000000 0.000000
0.118948 1.000000 0.000000
0.140066 1.000000 0.000000
0.165037 1.000000 0.000000
0.197634 1.000000 0.000000
0.242290 1.000000 0.000000
0.300994 1.000000 0.000000
0.383852 1.000000 0.000000
0.511440 1.000000 0.000000
0.715900 1.000000 0.000000
1.000000 1.000000 0.000000
0.000000 0.000000 0.082500
0.284100 0.000000 0.082500
0.488560 0.000000 0.082500
0.616148 0.000000 0.082500
0.699006 0.000000 0.082500
0.757710 0.000000 0.082500
0.802366 0.000000 0.082500
0.834963 0.000000 0.082500
0.859934 0.000000 0.082500
0.881052 0.000000 0.082500
0.898368 0.000000 0.082500
0.913667 0.000000 0.082500
0.926412 0.000000 0.082500
0.938088 0.000000 0.082500
0.948593 0.000000 0.082500
0.958483 0.000000 0.082500
0.967527 0.000000 0.082500
0.975735 0.000000 0.082500
0.983805 0.000000 0.082500
0.991990 0.000000 0.082500
1.000000 0.000000 0.082500
0.000000 0.008010 0.082500
0.281934 0.009898 0.082500
0.485471 0.015200 0.082500
0.613039 0.024593 0.082500
0.695341 0.036673 0.082500
0.752666 0.050860 0.082500
0.796384 0.067652 0.082500
0.827507 0.086774 0.082500
0.852421 0.107515 0.082500
0.872364 0.128778 0.082500
0.889414 0.149387 0.082500
0.904146 0.170697 0.082500
0.917085 0.192564 0.082500
0.928711 0.212540 0.082500
0.939553 0.229839 0.082500
0.950188 0.245266 0.082500
0.960485 0.257555 0.082500
0.970494 0.267887 0.082500
0.980194 0.276106 0.082500
0.990102 0.281934 0.082500
1.000000 0.284100 0.082500
0.000000 0.016195 0.082500
0.276106 0.019806 0.082500
0.477719 0.029999 0.082500
0.605060 0.048209 0.082500
0.686993 0.071434 0.082500
0.744849 0.099224 0.082500
0.787093 0.132843 0.082500
0.816348 0.168562 0.082500
0.838661 0.206932 0.082500
0.856724 0.244005 0.082500
0.871852 0.280583 0.082500
0.884719 0.316628 0.082500
0.896072 0.351979 0.082500
0.907084 0.383159 0.082500
0.918127 0.409865 0.082500
0.930037 0.432945 0.082500
0.942691 0.451230 0.082500
0.956041 0.466417 0.082500
0.970001 0.477719 0.082500
0.984800 0.485471 0.082500
1.000000 0.488560 0.082500
0.000000 0.024265 0.082500
0.267887 0.029506 0.082500
0.466417 0.043959 0.082500
0.592267 0.070034 0.082500
0.672813 0.102496 0.082500
0.728074 0.140510 0.082500
0.765562 0.185946 0.082500
0.792104 0.232263 0.082500
0.810308 0.282209 0.082500
0.825103 0.328001 0.082500
0.836706 0.373571 0.082500
0.846872 0.416734 0.082500
0.855633 0.458115 0.082500
0.865921 0.494460 0.082500
0.878080 0.525816 0.082500
0.892920 0.552766 0.082500
0.910036 0.574793 0.082500
0.929966 0.592267 0.082500
0.951791 0.605060 0.082500
0.975407 0.613039 0.082500
1.000000 0.616148 0.082500
0.000000 0.032473 0.082500
0.257555 0.039515 0.082500
0.451230 0.057309 0.082500
0.574793 0.089964 0.082500
0.654971 0.130290 0.082500
0.707973 0.178228 0.082500
0.740890 0.233896 0.082500
0.763613 0.287996 0.082500
0.776522 0.346403 0.082500
0.788111 0.397079 0.082500
0.794928 0.448038 0.082500
0.801445 0.494058 0.082500
0.807324 0.536847 0.082500
0.817286 0.573261 0.082500
0.830352 0.605096 0.082500
0.847978 0.632262 0.082500
0.869710 0.654971 0.082500
0.897504 0.672813 0.082500
0.928566 0.686993 0.082500
0.963327 0.695341 0.082500
1.000000 0.699006 0.082500
0.000000 0.041517 0.082500
0.245266 0.049812 0.082500
0.432945 0.069963 0.082500
0.552766 0.107080 0.082500
0.632262 0.152022 0.082500
0.681562 0.204636 0.082500
0.709792 0.263292 0.082500
0.729484 0.320563 0.082500
0.737838 0.379723 0.082500
0.745907 0.432177 0.082500
0.748208 0.483553 0.082500
0.750607 0.530827 0.082500
0.752735 0.574981 0.082500
0.761033 0.615061 0.082500
0.774853 0.650500 0.082500
0.795364 0.681562 0.082500
0.821772 0.707973 0.082500
0.859490 0.728074 0.082500
0.900776 0.744849 0.082500
0.949140 0.752666 0.082500
1.000000 0.757710 0.082500
0.000000 0.051407 0.082500
0.229839 0.060447 0.082500
0.409865 0.081873 0.082500
0.525816 0.121920 0.082500
0.605096 0.169648 0.082500
0.650500 0.225147 0.082500
0.675529 0.284984 0.082500
0.691649 0.343793 0.082500
0.696424 0.402792 0.082500
0.700495 0.455679 0.082500
0.698332 0.506277 0.082500
0.696908 0.553086 0.082500
0.695644 0.596831 0.082500
0.702108 0.637828 0.082500
0.715016 0.675529 0.082500
0.736708 0.709792 0.082500
0.766104 0.740890 0.082500
0.814054 0.765562 0.082500
0.867157 0.787093 0.082500
0.932348 0.796384 0.082500
1.000000 0.802366 0.082500
0.000000 0.061912 0.082500
0.212540 0.071289 0.082500
0.383159 0.092916 0.082500
0.494460 0.134079 0.082500
0.573261 0.182714 0.082500
0.615061 0.238967 0.082500
0.637828 0.297892 0.082500
0.650725 0.356521 0.082500
0.652834 0.414007 0.082500
0.652960 0.466448 0.082500
0.647183 0.515917 0.082500
0.642439 0.562635 0.082500
0.638430 0.607050 0.082500
0.643479 0.650725 0.082500
0.656207 0.691649 0.082500
0.679437 0.729484 0.082500
0.712004 0.763613 0.082500
0.767737 0.792104 0.082500
0.831438 0.816348 0.082500
0.913226 0.827507 0.082500
1.000000 0.834963 0.082500
0.000000 0.073588 0.082500
0.192564 0.082915 0.082500
0.351979 0.103928 0.082500
0.458115 0.144367 0.082500
0.536847 0.192676 0.082500
0.574981 0.247265 0.082500
0.596831 0.304356 0.082500
0.607050 0.361570 0.082500
0.607486 0.417631 0.082500
0.603942 0.468959 0.082500
0.595278 0.517049 0.082500
0.588135 0.563187 0.082500
0.582369 0.607486 0.082500
0.585993 0.652834 0.082500
0.597208 0.696424 0.082500
0.620277 0.737838 0.082500
0.653597 0.776522 0.082500
0.717791 0.810308 0.082500
0.793068 0.838661 0.082500
0.892485 0.852421 0.082500
1.000000 0.859934 0.082500
0.000000 0.086333 0.082500
0.170697 0.095854 0.082500
0.316628 0.115281 0.082500
0.416734 0.153128 0.082500
0.494058 0.198555 0.082500
0.530827 0.249393 0.082500
0.553086 0.303092 0.082500
0.562635 0.357561 0.082500
0.563187 0.411865 0.082500
0.557320 0.461982 0.082500
0.547257 0.510040 0.082500
0.538018 0.557320 0.082500
0.531041 0.603942 0.082500
0.533552 0.652960 0.082500
0.544321 0.700495 0.082500
0.567823 0.745907 0.082500
0.602921 0.788111 0.082500
0.671999 0.825103 0.082500
0.755995 0.856724 0.082500
0.871222 0.872364 0.082500
1.000000 0.881052 0.082500
0.000000 0.101632 0.082500
0.149387 0.110586 0.082500
0.280583 0.128148 0.082500
0.373571 0.163294 0.082500
0.448038 0.205072 0.082500
0.483553 0.251792 0.082500
0.506277 0.301668 0.082500
0.515917 0.352817 0.082500
0.517049 0.404722 0.082500
0.510040 0.452743 0.082500
0.500000 0.500000 0.082500
0.489960 0.547257 0.082500
0.482951 0.595278 0.082500
0.484083 0.647183 0.082500
0.493723 0.698332 0.082500
0.516447 0.748208 0.082500
0.551962 0.794928 0.082500
0.626429 0.836706 0.082500
0.719417 0.871852 0.082500
0.850613 0.889414 0.082500
1.000000 0.898368 0.082500
0.000000 0.118948 0.082500
0.128778 0.127636 0.082500
0.244005 0.143276 0.082500
0.328001 0.174897 0.082500
0.397079 0.211889 0.082500
0.432177 0.254093 0.082500
0.455679 0.299505 0.082500
0.466448 0.347040 0.082500
0.468959 0.396058 0.082500
0.461982 0.442680 0.082500
0.452743 0.489960 0.082500
0.442680 0.538018 0.082500
0.436813 0.588135 0.082500
0.437365 0.642439 0.082500
0.446914 0.696908 0.082500
0.469173 0.750607 0.082500
0.505942 0.801445 0.082500
0.583266 0.846872 0.082500
0.683372 0.884719 0.082500
0.829303 0.904146 0.082500
1.000000 0.913667 0.082500
0.000000 0.140066 0.082500
0.107515 0.147579 0.082500
0.206932 0.161339 0.082500
0.282209 0.189692 0.082500
0.346403 0.223478 0.082500
0.379723 0.262162 0.082500
0.402792 0.303576 0.082500
0.414007 0.347166 0.082500
0.417631 0.392514 0.082500
0.411865 0.436813 0.082500
0.404722 0.482951 0.082500
0.396058 0.531041 0.082500
0.392514 0.582369 0.082500
0.392950 0.638430 0.082500
0.403169 0.695644 0.082500
0.425019 0.752735 0.082500
0.463153 0.807324 0.082500
0.541885 0.855633 0.082500
0.648021 0.896072 0.082500
0.807436 0.917085 0.082500
1.000000 0.926412 0.082500
0.000000 0.165037 0.082500
0.086774 0.172493 0.082500
0.168562 0.183652 0.082500
0.232263 0.207896 0.082500
0.287996 0.236387 0.082500
0.320563 0.270516 0.082500
0.343793 0.308351 0.082500
0.356521 0.349275 0.082500
0.361570 0.392950 0.082500
0.357561 0.437365 0.082500
0.352817 0.484083 0.082500
0.347040 0.533552 0.082500
0.347166 0.585993 0.082500
0.349275 0.643479 0.082500
0.362172 0.702108 0.082500
0.384939 0.761033 0.082500
0.426739 0.817286 0.082500
0.505540 0.865921 0.082500
0.616841 0.907084 0.082500
0.787460 0.928711 0.082500
1.000000 0.938088 0.082500
0.000000 0.197634 0.082500
0.067652 0.203616 0.082500
0.132843 0.212907 0.082500
0.185946 0.234438 0.082500