# vtk DataFile Version 2.0
Mesh for Fierro
ASCII 
DATASET UNSTRUCTURED_GRID

POINTS 2205 float
0.000000 0.000000 0.000000
0.262206 0.000000 0.000000
0.458923 0.000000 0.000000
0.588675 0.000000 0.000000
0.674979 0.000000 0.000000
0.737168 0.000000 0.000000
0.785083 0.000000 0.000000
0.819909 0.000000 0.000000
0.847383 0.000000 0.000000
0.870040 0.000000 0.000000
0.888824 0.000000 0.000000
0.905681 0.000000 0.000000
0.919856 0.000000 0.000000
0.932176 0.000000 0.000000
0.943661 0.000000 0.000000
0.954542 0.000000 0.000000
0.964320 0.000000 0.000000
0.973571 0.000000 0.000000
0.982349 0.000000 0.000000
0.991102 0.000000 0.000000
1.000000 0.000000 0.000000
0.000000 0.008898 0.000000
0.260167 0.010547 0.000000
0.455909 0.015279 0.000000
0.585656 0.024046 0.000000
0.671706 0.034708 0.000000
0.732587 0.047851 0.000000
0.778924 0.063270 0.000000
0.812797 0.080430 0.000000
0.839143 0.099186 0.000000
0.861108 0.118439 0.000000
0.879934 0.137297 0.000000
0.896043 0.156869 0.000000
0.910054 0.177040 0.000000
0.922779 0.195516 0.000000
0.934720 0.211561 0.000000
0.946368 0.225922 0.000000
0.957460 0.237363 0.000000
0.968316 0.247057 0.000000
0.978872 0.254733 0.000000
0.989453 0.260167 0.000000
1.000000 0.262206 0.000000
0.000000 0.017651 0.000000
0.254733 0.021128 0.000000
0.448335 0.030239 0.000000
0.577640 0.047206 0.000000
0.663391 0.067782 0.000000
0.724409 0.093462 0.000000
0.769345 0.124131 0.000000
0.801482 0.156576 0.000000
0.826464 0.191624 0.000000
0.846302 0.226093 0.000000
0.863426 0.260136 0.000000
0.878291 0.293996 0.000000
0.891111 0.327467 0.000000
0.903423 0.357147 0.000000
0.915646 0.382740 0.000000
0.928470 0.404939 0.000000
0.941778 0.422611 0.000000
0.955538 0.437351 0.000000
0.969761 0.448335 0.000000
0.984721 0.455909 0.000000
1.000000 0.458923 0.000000
0.000000 0.026429 0.000000
0.247057 0.031684 0.000000
0.437351 0.044462 0.000000
0.564922 0.068778 0.000000
0.649746 0.097859 0.000000
0.708031 0.133383 0.000000
0.748789 0.175107 0.000000
0.777894 0.217853 0.000000
0.798855 0.264218 0.000000
0.816355 0.307392 0.000000
0.830285 0.350755 0.000000
0.842577 0.392186 0.000000
0.853321 0.432381 0.000000
0.865049 0.468004 0.000000
0.878257 0.498880 0.000000
0.893827 0.525548 0.000000
0.911327 0.547422 0.000000
0.931222 0.564922 0.000000
0.952794 0.577640 0.000000
0.975954 0.585656 0.000000
1.000000 0.588675 0.000000
0.000000 0.035680 0.000000
0.237363 0.042540 0.000000
0.422611 0.058222 0.000000
0.547422 0.088673 0.000000
0.631746 0.124915 0.000000
0.687743 0.169662 0.000000
0.724471 0.221064 0.000000
0.750592 0.271832 0.000000
0.766836 0.326951 0.000000
0.781259 0.375737 0.000000
0.791066 0.425283 0.000000
0.800256 0.470544 0.000000
0.808417 0.513210 0.000000
0.820164 0.549676 0.000000
0.834596 0.581677 0.000000
0.853067 0.609029 0.000000
0.875085 0.631746 0.000000
0.902141 0.649746 0.000000
0.932218 0.663391 0.000000
0.965292 0.671706 0.000000
1.000000 0.674979 0.000000
0.000000 0.045458 0.000000
0.225922 0.053632 0.000000
0.404939 0.071530 0.000000
0.525548 0.106173 0.000000
0.609029 0.146933 0.000000
0.661364 0.196221 0.000000
0.693900 0.251000 0.000000
0.716990 0.305220 0.000000
0.729445 0.361802 0.000000
0.740737 0.412756 0.000000
0.746330 0.463317 0.000000
0.751843 0.510264 0.000000
0.756766 0.554520 0.000000
0.767239 0.594655 0.000000
0.782514 0.630234 0.000000
0.803779 0.661364 0.000000
0.830338 0.687743 0.000000
0.866617 0.708031 0.000000
0.906538 0.724409 0.000000
0.952149 0.732587 0.000000
1.000000 0.737168 0.000000
0.000000 0.056339 0.000000
0.211561 0.065280 0.000000
0.382740 0.084354 0.000000
0.498880 0.121743 0.000000
0.581677 0.165404 0.000000
0.630234 0.217486 0.000000
0.659876 0.273880 0.000000
0.679707 0.330013 0.000000
0.688936 0.387116 0.000000
0.696561 0.438962 0.000000
0.698120 0.489337 0.000000
0.700151 0.536345 0.000000
0.702065 0.580654 0.000000
0.711142 0.622019 0.000000
0.726120 0.659876 0.000000
0.749000 0.693900 0.000000
0.778936 0.724471 0.000000
0.824893 0.748789 0.000000
0.875869 0.769345 0.000000
0.936730 0.778924 0.000000
1.000000 0.785083 0.000000
0.000000 0.067824 0.000000
0.195516 0.077221 0.000000
0.357147 0.096577 0.000000
0.468004 0.134951 0.000000
0.549676 0.179836 0.000000
0.594655 0.232761 0.000000
0.622019 0.288858 0.000000
0.639007 0.345215 0.000000
0.645737 0.401393 0.000000
0.649738 0.453234 0.000000
0.647944 0.502958 0.000000
0.647019 0.550149 0.000000
0.646639 0.595195 0.000000
0.654785 0.639007 0.000000
0.669987 0.679707 0.000000
0.694780 0.716990 0.000000
0.728168 0.750592 0.000000
0.782147 0.777894 0.000000
0.843424 0.801482 0.000000
0.919570 0.812797 0.000000
1.000000 0.819909 0.000000
0.000000 0.080144 0.000000
0.177040 0.089946 0.000000
0.327467 0.108889 0.000000
0.432381 0.146679 0.000000
0.513210 0.191583 0.000000
0.554520 0.243234 0.000000
0.580654 0.297935 0.000000
0.595195 0.353361 0.000000
0.600330 0.408575 0.000000
0.600942 0.459706 0.000000
0.596482 0.508417 0.000000
0.593346 0.555282 0.000000
0.591425 0.600330 0.000000
0.598607 0.645737 0.000000
0.612884 0.688936 0.000000
0.638198 0.729445 0.000000
0.673049 0.766836 0.000000
0.735782 0.798855 0.000000
0.808376 0.826464 0.000000
0.900814 0.839143 0.000000
1.000000 0.847383 0.000000
0.000000 0.094319 0.000000
0.156869 0.103957 0.000000
0.293996 0.121709 0.000000
0.392186 0.157423 0.000000
0.470544 0.199744 0.000000
0.510264 0.248157 0.000000
0.536345 0.299849 0.000000
0.550149 0.352981 0.000000
0.555282 0.406654 0.000000
0.553727 0.456906 0.000000
0.548041 0.505699 0.000000
0.543094 0.553727 0.000000
0.540294 0.600942 0.000000
0.546766 0.649738 0.000000
0.561038 0.696561 0.000000
0.587244 0.740737 0.000000
0.624263 0.781259 0.000000
0.692608 0.816355 0.000000
0.773907 0.846302 0.000000
0.881561 0.861108 0.000000
1.000000 0.870040 0.000000
0.000000 0.111176 0.000000
0.137297 0.120066 0.000000
0.260136 0.136574 0.000000
0.350755 0.169715 0.000000
0.425283 0.208934 0.000000
0.463317 0.253670 0.000000
0.489337 0.301880 0.000000
0.502958 0.352056 0.000000
0.508417 0.403518 0.000000
0.505699 0.451959 0.000000
0.500000 0.500000 0.000000
0.494301 0.548041 0.000000
0.491583 0.596482 0.000000
0.497042 0.647944 0.000000
0.510663 0.698120 0.000000
0.536683 0.746330 0.000000
0.574717 0.791066 0.000000
0.649245 0.830285 0.000000
0.739864 0.863426 0.000000
0.862703 0.879934 0.000000
1.000000 0.888824 0.000000
0.000000 0.129960 0.000000
0.118439 0.138892 0.000000
0.226093 0.153698 0.000000
0.307392 0.183645 0.000000
0.375737 0.218741 0.000000
0.412756 0.259263 0.000000
0.438962 0.303439 0.000000
0.453234 0.350262 0.000000
0.459706 0.399058 0.000000
0.456906 0.446273 0.000000
0.451959 0.494301 0.000000
0.446273 0.543094 0.000000
0.444718 0.593346 0.000000
0.449851 0.647019 0.000000
0.463655 0.700151 0.000000
0.489736 0.751843 0.000000
0.529456 0.800256 0.000000
0.607814 0.842577 0.000000
0.706004 0.878291 0.000000
0.843131 0.896043 0.000000
1.000000 0.905681 0.000000
0.000000 0.152617 0.000000
0.099186 0.160857 0.000000
0.191624 0.173536 0.000000
0.264218 0.201145 0.000000
0.326951 0.233164 0.000000
0.361802 0.270555 0.000000
0.387116 0.311064 0.000000
0.401393 0.354263 0.000000
0.408575 0.399670 0.000000
0.406654 0.444718 0.000000
0.403518 0.491583 0.000000
0.399058 0.540294 0.000000
0.399670 0.591425 0.000000
0.404805 0.646639 0.000000
0.419346 0.702065 0.000000
0.445480 0.756766 0.000000
0.486790 0.808417 0.000000
0.567619 0.853321 0.000000
0.672533 0.891111 0.000000
0.822960 0.910054 0.000000
1.000000 0.919856 0.000000
0.000000 0.180091 0.000000
0.080430 0.187203 0.000000
0.156576 0.198518 0.000000
0.217853 0.222106 0.000000
0.271832 0.249408 0.000000
0.305220 0.283010 0.000000
0.330013 0.320293 0.000000
0.345215 0.360993 0.000000
0.353361 0.404805 0.000000
0.352981 0.449851 0.000000
0.352056 0.497042 0.000000
0.350262 0.546766 0.000000
0.354263 0.598607 0.000000
0.360993 0.654785 0.000000
0.377981 0.711142 0.000000
0.405345 0.767239 0.000000
0.450324 0.820164 0.000000
0.531996 0.865049 0.000000
0.642853 0.903423 0.000000
0.804484 0.922779 0.000000
1.000000 0.932176 0.000000
0.000000 0.214917 0.000000
0.063270 0.221076 0.000000
0.124131 0.230655 0.000000
0.175107 0.251211 0.000000
0.221064 0.275529 0.000000
0.251000 0.306100 0.000000
0.273880 0.340124 0.000000
0.288858 0.377981 0.000000
0.297935 0.419346 0.000000
0.299849 0.463655 0.000000
0.301880 0.510663 0.000000
0.303439 0.561038 0.000000
0.311064 0.612884 0.000000
0.320293 0.669987 0.000000
0.340124 0.726120 0.000000
0.369766 0.782514 0.000000
0.418323 0.834596 0.000000
0.501120 0.878257 0.000000
0.617260 0.915646 0.000000
0.788439 0.934720 0.000000
1.000000 0.943661 0.000000
0.000000 0.262832 0.000000
0.047851 0.267413 0.000000
0.093462 0.275591 0.000000
0.133383 0.291969 0.000000
0.169662 0.312257 0.000000
0.196221 0.338636 0.000000
0.217486 0.369766 0.000000
0.232761 0.405345 0.000000
0.243234 0.445480 0.000000
0.248157 0.489736 0.000000
0.253670 0.536683 0.000000
0.259263 0.587244 0.000000
0.270555 0.638198 0.000000
0.283010 0.694780 0.000000
0.306100 0.749000 0.000000
0.338636 0.803779 0.000000
0.390971 0.853067 0.000000
0.474452 0.893827 0.000000
0.595061 0.928470 0.000000
0.774078 0.946368 0.000000
1.000000 0.954542 0.000000
0.000000 0.325021 0.000000
0.034708 0.328294 0.000000
0.067782 0.336609 0.000000
0.097859 0.350254 0.000000
0.124915 0.368254 0.000000
0.146933 0.390971 0.000000
0.165404 0.418323 0.000000
0.179836 0.450324 0.000000
0.191583 0.486790 0.000000
0.199744 0.529456 0.000000
0.208934 0.574717 0.000000
0.218741 0.624263 0.000000
0.233164 0.673049 0.000000
0.249408 0.728168 0.000000
0.275529 0.778936 0.000000
0.312257 0.830338 0.000000
0.368254 0.875085 0.000000
0.452578 0.911327 0.000000
0.577389 0.941778 0.000000
0.762637 0.957460 0.000000
1.000000 0.964320 0.000000
0.000000 0.411325 0.000000
0.024046 0.414344 0.000000
0.047206 0.422360 0.000000
0.068778 0.435078 0.000000
0.088673 0.452578 0.000000
0.106173 0.474452 0.000000
0.121743 0.501120 0.000000
0.134951 0.531996 0.000000
0.146679 0.567619 0.000000
[...]
POINT_DATA 2205 
VECTORS pos float 
0.000000 0.000000 0.000000
0.262206 0.000000 0.000000
0.458923 0.000000 0.000000
0.588675 0.000000 0.000000
0.674979 0.000000 0.000000
0.737168 0.000000 0.000000
0.785083 0.000000 0.000000
0.819909 0.000000 0.000000
0.847383 0.000000 0.000000
0.870040 0.000000 0.000000
0.888824 0.000000 0.000000
0.905681 0.000000 0.000000
0.919856 0.000000 0.000000
0.932176 0.000000 0.000000
0.943661 0.000000 0.000000
0.954542 0.000000 0.000000
0.964320 0.000000 0.000000
0.973571 0.000000 0.000000
0.982349 0.000000 0.000000
0.991102 0.000000 0.000000
1.000000 0.000000 0.000000
0.000000 0.008898 0.000000
0.260167 0.010547 0.000000
0.455909 0.015279 0.000000
0.585656 0.024046 0.000000
0.671706 0.034708 0.000000
0.732587 0.047851 0.000000
0.778924 0.063270 0.000000
0.812797 0.080430 0.000000
0.839143 0.099186 0.000000
0.861108 0.118439 0.000000
0.879934 0.137297 0.000000
0.896043 0.156869 0.000000
0.910054 0.177040 0.000000
0.922779 0.195516 0.000000
0.934720 0.211561 0.000000
0.946368 0.225922 0.000000
0.957460 0.237363 0.000000
0.968316 0.247057 0.000000
0.978872 0.254733 0.000000
0.989453 0.260167 0.000000
1.000000 0.262206 0.000000
0.000000 0.017651 0.000000
0.254733 0.021128 0.000000
0.448335 0.030239 0.000000
0.577640 0.047206 0.000000
0.663391 0.067782 0.000000
0.724409 0.093462 0.000000
0.769345 0.124131 0.000000
0.801482 0.156576 0.000000
0.826464 0.191624 0.000000
0.846302 0.226093 0.000000
0.863426 0.260136 0.000000
0.878291 0.293996 0.000000
0.891111 0.327467 0.000000
0.903423 0.357147 0.000000
0.915646 0.382740 0.000000
0.928470 0.404939 0.000000
0.941778 0.422611 0.000000
0.955538 0.437351 0.000000
0.969761 0.448335 0.000000
0.984721 0.455909 0.000000
1.000000 0.458923 0.000000
0.000000 0.026429 0.000000
0.247057 0.031684 0.000000
0.437351 0.044462 0.000000
0.564922 0.068778 0.000000
0.649746 0.097859 0.000000
0.708031 0.133383 0.000000
0.748789 0.175107 0.000000
0.777894 0.217853 0.000000
0.798855 0.264218 0.000000
0.816355 0.307392 0.000000
0.830285 0.350755 0.000000
0.842577 0.392186 0.000000
0.853321 0.432381 0.000000
0.865049 0.468004 0.000000
0.878257 0.498880 0.000000
0.893827 0.525548 0.000000
0.911327 0.547422 0.000000
0.931222 0.564922 0.000000
0.952794 0.577640 0.000000
0.975954 0.585656 0.000000
1.000000 0.588675 0.000000
0.000000 0.035680 0.000000
0.237363 0.042540 0.000000
0.422611 0.058222 0.000000
0.547422 0.088673 0.000000
0.631746 0.124915 0.000000
0.687743 0.169662 0.000000
0.724471 0.221064 0.000000
0.750592 0.271832 0.000000
0.766836 0.326951 0.000000
0.781259 0.375737 0.000000
0.791066 0.425283 0.000000
0.800256 0.470544 0.000000
0.808417 0.513210 0.000000
0.820164 0.549676 0.000000
0.834596 0.581677 0.000000
0.853067 0.609029 0.000000
0.875085 0.631746 0.000000
0.902141 0.649746 0.000000
0.932218 0.663391 0.000000
0.965292 0.671706 0.000000
1.000000 0.674979 0.000000
0.000000 0.045458 0.000000
0.225922 0.053632 0.000000
0.404939 0.071530 0.000000
0.525548 0.106173 0.000000
0.609029 0.146933 0.000000
0.661364 0.196221 0.000000
0.693900 0.251000 0.000000
0.716990 0.305220 0.000000
0.729445 0.361802 0.000000
0.740737 0.412756 0.000000
0.746330 0.463317 0.000000
0.751843 0.510264 0.000000
0.756766 0.554520 0.000000
0.767239 0.594655 0.000000
0.782514 0.630234 0.000000
0.803779 0.661364 0.000000
0.830338 0.687743 0.000000
0.866617 0.708031 0.000000
0.906538 0.724409 0.000000
0.952149 0.732587 0.000000
1.000000 0.737168 0.000000
0.000000 0.056339 0.000000
0.211561 0.065280 0.000000
0.382740 0.084354 0.000000
0.498880 0.121743 0.000000
0.581677 0.165404 0.000000
0.630234 0.217486 0.000000
0.659876 0.273880 0.000000
0.679707 0.330013 0.000000
0.688936 0.387116 0.000000
0.696561 0.438962 0.000000
0.698120 0.489337 0.000000
0.700151 0.536345 0.000000
0.702065 0.580654 0.000000
0.711142 0.622019 0.000000
0.726120 0.659876 0.000000
0.749000 0.693900 0.000000
0.778936 0.724471 0.000000
0.824893 0.748789 0.000000
0.875869 0.769345 0.000000
0.936730 0.778924 0.000000
1.000000 0.785083 0.000000
0.000000 0.067824 0.000000
0.195516 0.077221 0.000000
0.357147 0.096577 0.000000
0.468004 0.134951 0.000000
0.549676 0.179836 0.000000
0.594655 0.232761 0.000000
0.622019 0.288858 0.000000
0.639007 0.345215 0.000000
0.645737 0.401393 0.000000
0.649738 0.453234 0.000000
0.647944 0.502958 0.000000
0.647019 0.550149 0.000000
0.646639 0.595195 0.000000
0.654785 0.639007 0.000000
0.669987 0.679707 0.000000
0.694780 0.716990 0.000000
0.728168 0.750592 0.000000
0.782147 0.777894 0.000000
0.843424 0.801482 0.000000
0.919570 0.812797 0.000000
1.000000 0.819909 0.000000
0.000000 0.080144 0.000000
0.177040 0.089946 0.000000
0.327467 0.108889 0.000000
0.432381 0.146679 0.000000
0.513210 0.191583 0.000000
0.554520 0.243234 0.000000
0.580654 0.297935 0.000000
0.595195 0.353361 0.000000
0.600330 0.408575 0.000000
0.600942 0.459706 0.000000
0.596482 0.508417 0.000000
0.593346 0.555282 0.000000
0.591425 0.600330 0.000000
0.598607 0.645737 0.000000
0.612884 0.688936 0.000000
0.638198 0.729445 0.000000
0.673049 0.766836 0.000000
0.735782 0.798855 0.000000
0.808376 0.826464 0.000000
0.900814 0.839143 0.000000
1.000000 0.847383 0.000000
0.000000 0.094319 0.000000
0.156869 0.103957 0.000000
0.293996 0.121709 0.000000
0.392186 0.157423 0.000000
0.470544 0.199744 0.000000
0.510264 0.248157 0.000000
0.536345 0.299849 0.000000
0.550149 0.352981 0.000000
0.555282 0.406654 0.000000
0.553727 0.456906 0.000000
0.548041 0.505699 0.000000
0.543094 0.553727 0.000000
0.540294 0.600942 0.000000
0.546766 0.649738 0.000000
0.561038 0.696561 0.000000
0.587244 0.740737 0.000000
0.624263 0.781259 0.000000
0.692608 0.816355 0.000000
0.773907 0.846302 0.000000
0.881561 0.861108 0.000000
1.000000 0.870040 0.000000
0.000000 0.111176 0.000000
0.137297 0.120066 0.000000
0.260136 0.136574 0.000000
0.350755 0.169715 0.000000
0.425283 0.208934 0.000000
0.463317 0.253670 0.000000
0.489337 0.301880 0.000000
0.502958 0.352056 0.000000
0.508417 0.403518 0.000000
0.505699 0.451959 0.000000
0.500000 0.500000 0.000000
0.494301 0.548041 0.000000
0.491583 0.596482 0.000000
0.497042 0.647944 0.000000
0.510663 0.698120 0.000000
0.536683 0.746330 0.000000
0.574717 0.791066 0.000000
0.649245 0.830285 0.000000
0.739864 0.863426 0.000000
0.862703 0.879934 0.000000
1.000000 0.888824 0.000000
0.000000 0.129960 0.000000
0.118439 0.138892 0.000000
0.226093 0.153698 0.000000
0.307392 0.183645 0.000000
0.375737 0.218741 0.000000
0.412756 0.259263 0.000000
0.438962 0.303439 0.000000
0.453234 0.350262 0.000000
0.459706 0.399058 0.000000
0.456906 0.446273 0.000000
0.451959 0.494301 0.000000
0.446273 0.543094 0.000000
0.444718 0.593346 0.000000
0.449851 0.647019 0.000000
0.463655 0.700151 0.000000
0.489736 0.751843 0.000000
0.529456 0.800256 0.000000
0.607814 0.842577 0.000000
0.706004 0.878291 0.000000
0.843131 0.896043 0.000000
1.000000 0.905681 0.000000
0.000000 0.152617 0.000000
0.099186 0.160857 0.000000
0.191624 0.173536 0.000000
0.264218 0.201145 0.000000
0.326951 0.233164 0.000000
0.361802 0.270555 0.000000
0.387116 0.311064 0.000000
0.401393 0.354263 0.000000
0.408575 0.399670 0.000000
0.406654 0.444718 0.000000
0.403518 0.491583 0.000000
0.399058 0.540294 0.000000
0.399670 0.591425 0.000000
0.404805 0.646639 0.000000
0.419346 0.702065 0.000000
0.445480 0.756766 0.000000
0.486790 0.808417 0.000000
0.567619 0.853321 0.000000
0.672533 0.891111 0.000000
0.822960 0.910054 0.000000
1.000000 0.919856 0.000000
0.000000 0.180091 0.000000
0.080430 0.187203 0.000000
0.156576 0.198518 0.000000
0.217853 0.222106 0.000000
0.271832 0.249408 0.000000
0.305220 0.283010 0.000000
0.330013 0.320293 0.000000
0.345215 0.360993 0.000000
0.353361 0.404805 0.000000
0.352981 0.449851 0.000000
0.352056 0.497042 0.000000
0.350262 0.546766 0.000000
0.354263 0.598607 0.000000
0.360993 0.654785 0.000000
0.377981 0.711142 0.000000
0.405345 0.767239 0.000000
0.450324 0.820164 0.000000
0.531996 0.865049 0.000000
0.642853 0.903423 0.000000
0.804484 0.922779 0.000000
1.000000 0.932176 0.000000
0.000000 0.214917 0.000000
0.063270 0.221076 0.000000
0.124131 0.230655 0.000000
0.175107 0.251211 0.000000
0.221064 0.275529 0.000000
0.251000 0.306100 0.000000
0.273880 0.340124 0.000000
0.288858 0.377981 0.000000
0.297935 0.419346 0.000000
0.299849 0.463655 0.000000
0.301880 0.510663 0.000000
0.303439 0.561038 0.000000
0.311064 0.612884 0.000000
0.320293 0.669987 0.000000
0.340124 0.726120 0.000000
0.369766 0.782514 0.000000
0.418323 0.834596 0.000000
0.501120 0.878257 0.000000
0.617260 0.915646 0.000000
0.788439 0.934720 0.000000
1.000000 0.943661 0.000000
0.000000 0.262832 0.000000
0.047851 0.267413 0.000000
0.093462 0.275591 0.000000
0.133383 0.291969 0.000000
0.169662 0.312257 0.000000
0.196221 0.338636 0.000000
0.217486 0.369766 0.000000
0.232761 0.405345 0.000000
0.243234 0.445480 0.000000
0.248157 0.489736 0.000000
0.253670 0.536683 0.000000
0.259263 0.587244 0.000000
0.270555 0.638198 0.000000
0.283010 0.694780 0.000000
0.306100 0.749000 0.000000
0.338636 0.803779 0.000000
0.390971 0.853067 0.000000
0.474452 0.893827 0.000000
0.595061 0.928470 0.000000
0.774078 0.946368 0.000000
1.000000 0.954542 0.000000
0.000000 0.325021 0.000000
0.034708 0.328294 0.000000
0.067782 0.336609 0.000000
0.097859 0.350254 0.000000
0.124915 0.368254 0.000000
0.146933 0.390971 0.000000
0.165404 0.418323 0.000000
0.179836 0.450324 0.000000
0.191583 0.486790 0.000000
0.199744 0.529456 0.000000
0.208934 0.574717 0.000000
0.218741 0.624263 0.000000
0.233164 0.673049 0.000000
0.249408 0.728168 0.000000
0.275529 0.778936 0.000000
0.312257 0.830338 0.000000
0.368254 0.875085 0.000000
0.452578 0.911327 0.000000
0.577389 0.941778 0.000000
0.762637 0.957460 0.000000
1.000000 0.964320 0.000000
0.000000 0.411325 0.000000
0.024046 0.414344 0.000000
0.047206 0.422360 0.000000
0.068778 0.435078 0.000000
0.088673 0.452578 0.000000
0.106173 0.474452 0.000000
0.121743 0.501120 0.000000
0.134951 0.531996 0.000000
0.146679 0.567619 0.000000
0.157423 0.607814 0.000000
0.169715 0.649245 0.000000
0.183645 0.692608 0.000000
0.201145 0.735782 0.000000
0.222106 0.782147 0.000000
0.251211 0.824893 0.000000
0.291969 0.866617 0.000000
0.350254 0.902141 0.000000
0.435078 0.931222 0.000000
0.562649 0.955538 0.000000
0.752943 0.968316 0.000000
1.000000 0.973571 0.000000
0.000000 0.541077 0.000000
0.015279 0.544091 0.000000
0.030239 0.551665 0.000000
0.044462 0.562649 0.000000
0.058222 0.577389 0.000000
0.071530 0.595061 0.000000
0.084354 0.617260 0.000000
0.096577 0.642853 0.000000
0.108889 0.672533 0.000000
0.121709 0.706004 0.000000
0.136574 0.739864 0.000000
0.153698 0.773907 0.000000
0.173536 0.808376 0.000000
0.198518 0.843424 0.000000
0.230655 0.875869 0.000000
0.275591 0.906538 0.000000
0.336609 0.932218 0.000000
0.422360 0.952794 0.000000
0.551665 0.969761 0.000000
0.745267 0.978872 0.000000
1.000000 0.982349 0.000000
0.000000 0.737794 0.000000
0.010547 0.739833 0.000000
0.021128 0.745267 0.000000
0.031684 0.752943 0.000000
0.042540 0.762637 0.000000
0.053632 0.774078 0.000000
0.065280 0.788439 0.000000
0.077221 0.804484 0.000000
0.089946 0.822960 0.000000
0.103957 0.843131 0.000000
0.120066 0.862703 0.000000
0.138892 0.881561 0.000000
0.160857 0.900814 0.000000
0.187203 0.919570 0.000000
0.221076 0.936730 0.000000
0.267413 0.952149 0.000000
0.328294 0.965292 0.000000
0.414344 0.975954 0.000000
0.544091 0.984721 0.000000
0.739833 0.989453 0.000000
1.000000 0.991102 0.000000
0.000000 1.000000 0.000000
0.008898 1.000000 0.000000
0.017651 1.000000 0.000000
0.026429 1.000000 0.000000
0.035680 1.000000 0.000000
0.045458 1.000000 0.000000
0.056339 1.000000 0.000000
0.067824 1.000000 0.000000
0.080144 1.000000 0.000000
0.094319 1.000000 0.000000
0.111176 1.000000 0.000000
0.129960 1.000000 0.000000
0.152617 1.000000 0.000000
0.180091 1.000000 0.000000
0.214917 1.000000 0.000000
0.262832 1.000000 0.000000
0.325021 1.000000 0.000000
0.411325 1.000000 0.000000
0.541077 1.000000 0.000000
0.737794 1.000000 0.000000
1.000000 1.000000 0.000000
0.000000 0.000000 0.082500
0.262206 0.000000 0.082500
0.458923 0.000000 0.082500
0.588675 0.000000 0.082500
0.674979 0.000000 0.082500
0.737168 0.000000 0.082500
0.785083 0.000000 0.082500
0.819909 0.000000 0.082500
0.847383 0.000000 0.082500
0.870040 0.000000 0.082500
0.888824 0.000000 0.082500
0.905681 0.000000 0.082500
0.919856 0.000000 0.082500
0.932176 0.000000 0.082500
0.943661 0.000000 0.082500
0.954542 0.000000 0.082500
0.964320 0.000000 0.082500
0.973571 0.000000 0.082500
0.982349 0.000000 0.082500
0.991102 0.000000 0.082500
1.000000 0.000000 0.082500
0.000000 0.008898 0.082500
0.260167 0.010547 0.082500
0.455909 0.015279 0.082500
0.585656 0.024046 0.082500
0.671706 0.034708 0.082500
0.732587 0.047851 0.082500
0.778924 0.063270 0.082500
0.812797 0.080430 0.082500
0.839143 0.099186 0.082500
0.861108 0.118439 0.082500
0.879934 0.137297 0.082500
0.896043 0.156869 0.082500
0.910054 0.177040 0.082500
0.922779 0.195516 0.082500
0.934720 0.211561 0.082500
0.946368 0.225922 0.082500
0.957460 0.237363 0.082500
0.968316 0.247057 0.082500
0.978872 0.254733 0.082500
0.989453 0.260167 0.082500
1.000000 0.262206 0.082500
0.000000 0.017651 0.082500
0.254733 0.021128 0.082500
0.448335 0.030239 0.082500
0.577640 0.047206 0.082500
0.663391 0.067782 0.082500
0.724409 0.093462 0.082500
0.769345 0.124131 0.082500
0.801482 0.156576 0.082500
0.826464 0.191624 0.082500
0.846302 0.226093 0.082500
0.863426 0.260136 0.082500
0.878291 0.293996 0.082500
0.891111 0.327467 0.082500
0.903423 0.357147 0.082500
0.915646 0.382740 0.082500
0.928470 0.404939 0.082500
0.941778 0.422611 0.082500
0.955538 0.437351 0.082500
0.969761 0.448335 0.082500
0.984721 0.455909 0.082500
1.000000 0.458923 0.082500
0.000000 0.026429 0.082500
0.247057 0.031684 0.082500
0.437351 0.044462 0.082500
0.564922 0.068778 0.082500
0.649746 0.097859 0.082500
0.708031 0.133383 0.082500
0.748789 0.175107 0.082500
0.777894 0.217853 0.082500
0.798855 0.264218 0.082500
0.816355 0.307392 0.082500
0.830285 0.350755 0.082500
0.842577 0.392186 0.082500
0.853321 0.432381 0.082500
0.865049 0.468004 0.082500
0.878257 0.498880 0.082500
0.893827 0.525548 0.082500
0.911327 0.547422 0.082500
0.931222 0.564922 0.082500
0.952794 0.577640 0.082500
0.975954 0.585656 0.082500
1.000000 0.588675 0.082500
0.000000 0.035680 0.082500
0.237363 0.042540 0.082500
0.422611 0.058222 0.082500
0.547422 0.088673 0.082500
0.631746 0.124915 0.082500
0.687743 0.169662 0.082500
0.724471 0.221064 0.082500
0.750592 0.271832 0.082500
0.766836 0.326951 0.082500
0.781259 0.375737 0.082500
0.791066 0.425283 0.082500
0.800256 0.470544 0.082500
0.808417 0.513210 0.082500
0.820164 0.549676 0.082500
0.834596 0.581677 0.082500
0.853067 0.609029 0.082500
0.875085 0.631746 0.082500
0.902141 0.649746 0.082500
0.932218 0.663391 0.082500
0.965292 0.671706 0.082500
1.000000 0.674979 0.082500
0.000000 0.045458 0.082500
0.225922 0.053632 0.082500
0.404939 0.071530 0.082500
0.525548 0.106173 0.082500
0.609029 0.146933 0.082500
0.661364 0.196221 0.082500
0.693900 0.251000 0.082500
0.716990 0.305220 0.082500
0.729445 0.361802 0.082500
0.740737 0.412756 0.082500
0.746330 0.463317 0.082500
0.751843 0.510264 0.082500
0.756766 0.554520 0.082500
0.767239 0.594655 0.082500
0.782514 0.630234 0.082500
0.803779 0.661364 0.082500
0.830338 0.687743 0.082500
0.866617 0.708031 0.082500
0.906538 0.724409 0.082500
0.952149 0.732587 0.082500
1.000000 0.737168 0.082500
0.000000 0.056339 0.082500
0.211561 0.065280 0.082500
0.382740 0.084354 0.082500
0.498880 0.121743 0.082500
0.581677 0.165404 0.082500
0.630234 0.217486 0.082500
0.659876 0.273880 0.082500
0.679707 0.330013 0.082500
0.688936 0.387116 0.082500
0.696561 0.438962 0.082500
0.698120 0.489337 0.082500
0.700151 0.536345 0.082500
0.702065 0.580654 0.082500
0.711142 0.622019 0.082500
0.726120 0.659876 0.082500
0.749000 0.693900 0.082500
0.778936 0.724471 0.082500
0.824893 0.748789 0.082500
0.875869 0.769345 0.082500
0.936730 0.778924 0.082500
1.000000 0.785083 0.082500
0.000000 0.067824 0.082500
0.195516 0.077221 0.082500
0.357147 0.096577 0.082500
0.468004 0.134951 0.082500
0.549676 0.179836 0.082500
0.594655 0.232761 0.082500
0.622019 0.288858 0.082500
0.639007 0.345215 0.082500
0.645737 0.401393 0.082500
0.649738 0.453234 0.082500
0.647944 0.502958 0.082500
0.647019 0.550149 0.082500
0.646639 0.595195 0.082500
0.654785 0.639007 0.082500
0.669987 0.679707 0.082500
0.694780 0.716990 0.082500
0.728168 0.750592 0.082500
0.782147 0.777894 0.082500
0.843424 0.801482 0.082500
0.919570 0.812797 0.082500
1.000000 0.819909 0.082500
0.000000 0.080144 0.082500
0.177040 0.089946 0.082500
0.327467 0.108889 0.082500
0.432381 0.146679 0.082500
0.513210 0.191583 0.082500
0.554520 0.243234 0.082500
0.580654 0.297935 0.082500
0.595195 0.353361 0.082500
0.600330 0.408575 0.082500
0.600942 0.459706 0.082500
0.596482 0.508417 0.082500
0.593346 0.555282 0.082500
0.591425 0.600330 0.082500
0.598607 0.645737 0.082500
0.612884 0.688936 0.082500
0.638198 0.729445 0.082500
0.673049 0.766836 0.082500
0.735782 0.798855 0.082500
0.808376 0.826464 0.082500
0.900814 0.839143 0.082500
1.000000 0.847383 0.082500
0.000000 0.094319 0.082500
0.156869 0.103957 0.082500
0.293996 0.121709 0.082500
0.392186 0.157423 0.082500
0.470544 0.199744 0.082500
0.510264 0.248157 0.082500
0.536345 0.299849 0.082500
0.550149 0.352981 0.082500
0.555282 0.406654 0.082500
0.553727 0.456906 0.082500
0.548041 0.505699 0.082500
0.543094 0.553727 0.082500
0.540294 0.600942 0.082500
0.546766 0.649738 0.082500
0.561038 0.696561 0.082500
0.587244 0.740737 0.082500
0.624263 0.781259 0.082500
0.692608 0.816355 0.082500
0.773907 0.846302 0.082500
0.881561 0.861108 0.082500
1.000000 0.870040 0.082500
0.000000 0.111176 0.082500
0.137297 0.120066 0.082500
0.260136 0.136574 0.082500
0.350755 0.169715 0.082500
0.425283 0.208934 0.082500
0.463317 0.253670 0.082500
0.489337 0.301880 0.082500
0.502958 0.352056 0.082500
0.508417 0.403518 0.082500
0.505699 0.451959 0.082500
0.500000 0.500000 0.082500
0.494301 0.548041 0.082500
0.491583 0.596482 0.082500
0.497042 0.647944 0.082500
0.510663 0.698120 0.082500
0.536683 0.746330 0.082500
0.574717 0.791066 0.082500
0.649245 0.830285 0.082500
0.739864 0.863426 0.082500
0.862703 0.879934 0.082500
1.000000 0.888824 0.082500
0.000000 0.129960 0.082500
0.118439 0.138892 0.082500
0.226093 0.153698 0.082500
0.307392 0.183645 0.082500
0.375737 0.218741 0.082500
0.412756 0.259263 0.082500
0.438962 0.303439 0.082500
0.453234 0.350262 0.082500
0.459706 0.399058 0.082500
0.456906 0.446273 0.082500
0.451959 0.494301 0.082500
0.446273 0.543094 0.082500
0.444718 0.593346 0.082500
0.449851 0.647019 0.082500
0.463655 0.700151 0.082500
0.489736 0.751843 0.082500
0.529456 0.800256 0.082500
0.607814 0.842577 0.082500
0.706004 0.878291 0.082500
0.843131 0.896043 0.082500
1.000000 0.905681 0.082500
0.000000 0.152617 0.082500
0.099186 0.160857 0.082500
0.191624 0.173536 0.082500
0.264218 0.201145 0.082500
0.326951 0.233164 0.082500
0.361802 0.270555 0.082500
0.387116 0.311064 0.082500
0.401393 0.354263 0.082500
0.408575 0.399670 0.082500
0.406654 0.444718 0.082500
0.403518 0.491583 0.082500
0.399058 0.540294 0.082500
0.399670 0.591425 0.082500
0.404805 0.646639 0.082500
0.419346 0.702065 0.082500
0.445480 0.756766 0.082500
0.486790 0.808417 0.082500
0.567619 0.853321 0.082500
0.672533 0.891111 0.082500
0.822960 0.910054 0.082500
1.000000 0.919856 0.082500
0.000000 0.180091 0.082500
0.080430 0.187203 0.082500
0.156576 0.198518 0.082500
0.217853 0.222106 0.082500
0.271832 0.249408 0.082500
0.305220 0.283010 0.082500
0.330013 0.320293 0.082500
0.345215 0.360993 0.082500
0.353361 0.404805 0.082500
0.352981 0.449851 0.082500
0.352056 0.497042 0.082500
0.350262 0.546766 0.082500
0.354263 0.598607 0.082500
0.360993 0.654785 0.082500
0.377981 0.711142 0.082500
0.405345 0.767239 0.082500
0.450324 0.820164 0.082500
0.531996 0.865049 0.082500
0.642853 0.903423 0.082500
0.804484 0.922779 0.082500
1.000000 0.932176 0.082500
0.000000 0.214917 0.082500
0.063270 0.221076 0.082500
0.124131 0.230655 0.082500
0.175107 0.251211 0.082500