# vtk DataFile Version 2.0
Mesh for Fierro
ASCII 
DATASET UNSTRUCTURED_GRID

POINTS 2205 float
0.000000 0.000000 0.000000
0.084671 0.000000 0.000000
0.167446 0.000000 0.000000
0.247433 0.000000 0.000000
0.323100 0.000000 0.000000
0.391465 0.000000 0.000000
0.454933 0.000000 0.000000
0.512738 0.000000 0.000000
0.566180 0.000000 0.000000
0.615859 0.000000 0.000000
0.662051 0.000000 0.000000
0.704145 0.000000 0.000000
0.742704 0.000000 0.000000
0.780267 0.000000 0.000000
0.815237 0.000000 0.000000
0.848857 0.000000 0.000000
0.880090 0.000000 0.000000
0.911250 0.000000 0.000000
0.941310 0.000000 0.000000
0.971113 0.000000 0.000000
1.000000 0.000000 0.000000
0.000000 0.028887 0.000000
0.084312 0.029314 0.000000
0.166709 0.030244 0.000000
0.246451 0.032137 0.000000
0.322256 0.034631 0.000000
0.390219 0.037699 0.000000
0.453361 0.041066 0.000000
0.510925 0.044658 0.000000
0.564342 0.048610 0.000000
0.613891 0.052715 0.000000
0.660022 0.056887 0.000000
0.702144 0.061127 0.000000
0.740806 0.065400 0.000000
0.778318 0.069380 0.000000
0.813412 0.073073 0.000000
0.847244 0.076430 0.000000
0.878766 0.079247 0.000000
0.910189 0.081610 0.000000
0.940416 0.083318 0.000000
0.970686 0.084312 0.000000
1.000000 0.084671 0.000000
0.000000 0.058690 0.000000
0.083318 0.059584 0.000000
0.164765 0.061809 0.000000
0.243549 0.065355 0.000000
0.318500 0.069511 0.000000
0.385790 0.075239 0.000000
0.448443 0.081786 0.000000
0.505474 0.088994 0.000000
0.558507 0.096732 0.000000
0.607851 0.104855 0.000000
0.653842 0.113137 0.000000
0.696008 0.121386 0.000000
0.734841 0.129777 0.000000
0.772709 0.137671 0.000000
0.808304 0.144786 0.000000
0.842849 0.151316 0.000000
0.874862 0.156894 0.000000
0.907443 0.161580 0.000000
0.938191 0.164765 0.000000
0.969756 0.166709 0.000000
1.000000 0.167446 0.000000
0.000000 0.088750 0.000000
0.081610 0.089811 0.000000
0.161580 0.092557 0.000000
0.238971 0.097478 0.000000
0.312728 0.103968 0.000000
0.378799 0.112477 0.000000
0.440463 0.122130 0.000000
0.496858 0.132769 0.000000
0.549492 0.144162 0.000000
0.598358 0.156116 0.000000
0.644051 0.168439 0.000000
0.686252 0.180630 0.000000
0.725298 0.192814 0.000000
0.763544 0.204284 0.000000
0.799885 0.214773 0.000000
0.835318 0.224206 0.000000
0.868552 0.232200 0.000000
0.902522 0.238971 0.000000
0.934645 0.243549 0.000000
0.967863 0.246451 0.000000
1.000000 0.247433 0.000000
0.000000 0.119910 0.000000
0.079247 0.121234 0.000000
0.156894 0.125138 0.000000
0.232200 0.131448 0.000000
0.304306 0.139246 0.000000
0.368779 0.149971 0.000000
0.429229 0.162451 0.000000
0.484930 0.176320 0.000000
0.537176 0.191169 0.000000
0.585422 0.206661 0.000000
0.630661 0.222601 0.000000
0.672937 0.238358 0.000000
0.712490 0.254051 0.000000
0.751382 0.268607 0.000000
0.788747 0.282156 0.000000
0.825478 0.294067 0.000000
0.860754 0.304306 0.000000
0.896032 0.312728 0.000000
0.930489 0.318500 0.000000
0.965369 0.322256 0.000000
1.000000 0.323100 0.000000
0.000000 0.151143 0.000000
0.076430 0.152756 0.000000
0.151316 0.157151 0.000000
0.224206 0.164682 0.000000
0.294067 0.174522 0.000000
0.356427 0.187259 0.000000
0.415273 0.201929 0.000000
0.470143 0.218103 0.000000
0.521916 0.235472 0.000000
0.569401 0.253551 0.000000
0.614049 0.272215 0.000000
0.656345 0.290626 0.000000
0.696365 0.308895 0.000000
0.736025 0.326175 0.000000
0.774461 0.342167 0.000000
0.812741 0.356427 0.000000
0.850029 0.368779 0.000000
0.887523 0.378799 0.000000
0.924761 0.385790 0.000000
0.962301 0.390219 0.000000
1.000000 0.391465 0.000000
0.000000 0.184763 0.000000
0.073073 0.186588 0.000000
0.144786 0.191696 0.000000
0.214773 0.200115 0.000000
0.282156 0.211253 0.000000
0.342167 0.225539 0.000000
0.399106 0.241925 0.000000
0.452651 0.260016 0.000000
0.503569 0.279439 0.000000
0.550227 0.299691 0.000000
0.594500 0.320581 0.000000
0.636890 0.341207 0.000000
0.677525 0.361676 0.000000
0.718246 0.381142 0.000000
0.758075 0.399106 0.000000
0.798071 0.415273 0.000000
0.837549 0.429229 0.000000
0.877870 0.440463 0.000000
0.918214 0.448443 0.000000
0.958934 0.453361 0.000000
1.000000 0.454933 0.000000
0.000000 0.219733 0.000000
0.069380 0.221682 0.000000
0.137671 0.227291 0.000000
0.204284 0.236456 0.000000
0.268607 0.248618 0.000000
0.326175 0.263975 0.000000
0.381142 0.281754 0.000000
0.433208 0.301396 0.000000
0.483153 0.322589 0.000000
0.529069 0.344745 0.000000
0.572870 0.367567 0.000000
0.615286 0.390066 0.000000
0.656535 0.412174 0.000000
0.698604 0.433208 0.000000
0.739984 0.452651 0.000000
0.781897 0.470143 0.000000
0.823680 0.484930 0.000000
0.867231 0.496858 0.000000
0.911006 0.505474 0.000000
0.955342 0.510925 0.000000
1.000000 0.512738 0.000000
0.000000 0.257296 0.000000
0.065400 0.259194 0.000000
0.129777 0.265159 0.000000
0.192814 0.274702 0.000000
0.254051 0.287510 0.000000
0.308895 0.303635 0.000000
0.361676 0.322475 0.000000
0.412174 0.343465 0.000000
0.461222 0.366133 0.000000
0.506140 0.389757 0.000000
0.549479 0.414047 0.000000
0.591969 0.437923 0.000000
0.633867 0.461222 0.000000
0.677411 0.483153 0.000000
0.720561 0.503569 0.000000
0.764528 0.521916 0.000000
0.808831 0.537176 0.000000
0.855838 0.549492 0.000000
0.903268 0.558507 0.000000
0.951390 0.564342 0.000000
1.000000 0.566180 0.000000
0.000000 0.295855 0.000000
0.061127 0.297856 0.000000
0.121386 0.303992 0.000000
0.180630 0.313748 0.000000
0.238358 0.327063 0.000000
0.290626 0.343655 0.000000
0.341207 0.363110 0.000000
0.390066 0.384714 0.000000
0.437923 0.408031 0.000000
0.482056 0.432326 0.000000
0.525057 0.457290 0.000000
0.567674 0.482056 0.000000
0.610243 0.506140 0.000000
0.655255 0.529069 0.000000
0.700309 0.550227 0.000000
0.746449 0.569401 0.000000
0.793339 0.585422 0.000000
0.843884 0.598358 0.000000
0.895145 0.607851 0.000000
0.947285 0.613891 0.000000
1.000000 0.615859 0.000000
0.000000 0.337949 0.000000
0.056887 0.339978 0.000000
0.113137 0.346158 0.000000
0.168439 0.355949 0.000000
0.222601 0.369339 0.000000
0.272215 0.385951 0.000000
0.320581 0.405500 0.000000
0.367567 0.427130 0.000000
0.414047 0.450521 0.000000
0.457290 0.474943 0.000000
0.500000 0.500000 0.000000
0.542710 0.525057 0.000000
0.585953 0.549479 0.000000
0.632433 0.572870 0.000000
0.679419 0.594500 0.000000
0.727785 0.614049 0.000000
0.777399 0.630661 0.000000
0.831561 0.644051 0.000000
0.886863 0.653842 0.000000
0.943113 0.660022 0.000000
1.000000 0.662051 0.000000
0.000000 0.384141 0.000000
0.052715 0.386109 0.000000
0.104855 0.392149 0.000000
0.156116 0.401642 0.000000
0.206661 0.414578 0.000000
0.253551 0.430599 0.000000
0.299691 0.449773 0.000000
0.344745 0.470931 0.000000
0.389757 0.493860 0.000000
0.432326 0.517944 0.000000
0.474943 0.542710 0.000000
0.517944 0.567674 0.000000
0.562077 0.591969 0.000000
0.609934 0.615286 0.000000
0.658793 0.636890 0.000000
0.709374 0.656345 0.000000
0.761642 0.672937 0.000000
0.819370 0.686252 0.000000
0.878614 0.696008 0.000000
0.938873 0.702144 0.000000
1.000000 0.704145 0.000000
0.000000 0.433820 0.000000
0.048610 0.435658 0.000000
0.096732 0.441493 0.000000
0.144162 0.450508 0.000000
0.191169 0.462824 0.000000
0.235472 0.478084 0.000000
0.279439 0.496431 0.000000
0.322589 0.516847 0.000000
0.366133 0.538778 0.000000
0.408031 0.562077 0.000000
0.450521 0.585953 0.000000
0.493860 0.610243 0.000000
0.538778 0.633867 0.000000
0.587826 0.656535 0.000000
0.638324 0.677525 0.000000
0.691105 0.696365 0.000000
0.745949 0.712490 0.000000
0.807186 0.725298 0.000000
0.870223 0.734841 0.000000
0.934600 0.740806 0.000000
1.000000 0.742704 0.000000
0.000000 0.487262 0.000000
0.044658 0.489075 0.000000
0.088994 0.494526 0.000000
0.132769 0.503142 0.000000
0.176320 0.515070 0.000000
0.218103 0.529857 0.000000
0.260016 0.547349 0.000000
0.301396 0.566792 0.000000
0.343465 0.587826 0.000000
0.384714 0.609934 0.000000
0.427130 0.632433 0.000000
0.470931 0.655255 0.000000
0.516847 0.677411 0.000000
0.566792 0.698604 0.000000
0.618858 0.718246 0.000000
0.673825 0.736025 0.000000
0.731393 0.751382 0.000000
0.795716 0.763544 0.000000
0.862329 0.772709 0.000000
0.930620 0.778318 0.000000
1.000000 0.780267 0.000000
0.000000 0.545067 0.000000
0.041066 0.546639 0.000000
0.081786 0.551557 0.000000
0.122130 0.559537 0.000000
0.162451 0.570771 0.000000
0.201929 0.584727 0.000000
0.241925 0.600894 0.000000
0.281754 0.618858 0.000000
0.322475 0.638324 0.000000
0.363110 0.658793 0.000000
0.405500 0.679419 0.000000
0.449773 0.700309 0.000000
0.496431 0.720561 0.000000
0.547349 0.739984 0.000000
0.600894 0.758075 0.000000
0.657833 0.774461 0.000000
0.717844 0.788747 0.000000
0.785227 0.799885 0.000000
0.855214 0.808304 0.000000
0.926927 0.813412 0.000000
1.000000 0.815237 0.000000
0.000000 0.608535 0.000000
0.037699 0.609781 0.000000
0.075239 0.614210 0.000000
0.112477 0.621201 0.000000
0.149971 0.631221 0.000000
0.187259 0.643573 0.000000
0.225539 0.657833 0.000000
0.263975 0.673825 0.000000
0.303635 0.691105 0.000000
0.343655 0.709374 0.000000
0.385951 0.727785 0.000000
0.430599 0.746449 0.000000
0.478084 0.764528 0.000000
0.529857 0.781897 0.000000
0.584727 0.798071 0.000000
0.643573 0.812741 0.000000
0.705933 0.825478 0.000000
0.775794 0.835318 0.000000
0.848684 0.842849 0.000000
0.923570 0.847244 0.000000
1.000000 0.848857 0.000000
0.000000 0.676900 0.000000
0.034631 0.677744 0.000000
0.069511 0.681500 0.000000
0.103968 0.687272 0.000000
0.139246 0.695694 0.000000
0.174522 0.705933 0.000000
0.211253 0.717844 0.000000
0.248618 0.731393 0.000000
0.287510 0.745949 0.000000
0.327063 0.761642 0.000000
0.369339 0.777399 0.000000
0.414578 0.793339 0.000000
0.462824 0.808831 0.000000
0.515070 0.823680 0.000000
0.570771 0.837549 0.000000
0.631221 0.850029 0.000000
0.695694 0.860754 0.000000
0.767800 0.868552 0.000000
0.843106 0.874862 0.000000
0.920753 0.878766 0.000000
1.000000 0.880090 0.000000
0.000000 0.752567 0.000000
0.032137 0.753549 0.000000
0.065355 0.756451 0.000000
0.097478 0.761029 0.000000
0.131448 0.767800 0.000000
0.164682 0.775794 0.000000
0.200115 0.785227 0.000000
0.236456 0.795716 0.000000
0.274702 0.807186 0.000000
[...]
POINT_DATA 2205 
VECTORS pos float 
0.000000 0.000000 0.000000
0.084671 0.000000 0.000000
0.167446 0.000000 0.000000
0.247433 0.000000 0.000000
0.323100 0.000000 0.000000
0.391465 0.000000 0.000000
0.454933 0.000000 0.000000
0.512738 0.000000 0.000000
0.566180 0.000000 0.000000
0.615859 0.000000 0.000000
0.662051 0.000000 0.000000
0.704145 0.000000 0.000000
0.742704 0.000000 0.000000
0.780267 0.000000 0.000000
0.815237 0.000000 0.000000
0.848857 0.000000 0.000000
0.880090 0.000000 0.000000
0.911250 0.000000 0.000000
0.941310 0.000000 0.000000
0.971113 0.000000 0.000000
1.000000 0.000000 0.000000
0.000000 0.028887 0.000000
0.084312 0.029314 0.000000
0.166709 0.030244 0.000000
0.246451 0.032137 0.000000
0.322256 0.034631 0.000000
0.390219 0.037699 0.000000
0.453361 0.041066 0.000000
0.510925 0.044658 0.000000
0.564342 0.048610 0.000000
0.613891 0.052715 0.000000
0.660022 0.056887 0.000000
0.702144 0.061127 0.000000
0.740806 0.065400 0.000000
0.778318 0.069380 0.000000
0.813412 0.073073 0.000000
0.847244 0.076430 0.000000
0.878766 0.079247 0.000000
0.910189 0.081610 0.000000
0.940416 0.083318 0.000000
0.970686 0.084312 0.000000
1.000000 0.084671 0.000000
0.000000 0.058690 0.000000
0.083318 0.059584 0.000000
0.164765 0.061809 0.000000
0.243549 0.065355 0.000000
0.318500 0.069511 0.000000
0.385790 0.075239 0.000000
0.448443 0.081786 0.000000
0.505474 0.088994 0.000000
0.558507 0.096732 0.000000
0.607851 0.104855 0.000000
0.653842 0.113137 0.000000
0.696008 0.121386 0.000000
0.734841 0.129777 0.000000
0.772709 0.137671 0.000000
0.808304 0.144786 0.000000
0.842849 0.151316 0.000000
0.874862 0.156894 0.000000
0.907443 0.161580 0.000000
0.938191 0.164765 0.000000
0.969756 0.166709 0.000000
1.000000 0.167446 0.000000
0.000000 0.088750 0.000000
0.081610 0.089811 0.000000
0.161580 0.092557 0.000000
0.238971 0.097478 0.000000
0.312728 0.103968 0.000000
0.378799 0.112477 0.000000
0.440463 0.122130 0.000000
0.496858 0.132769 0.000000
0.549492 0.144162 0.000000
0.598358 0.156116 0.000000
0.644051 0.168439 0.000000
0.686252 0.180630 0.000000
0.725298 0.192814 0.000000
0.763544 0.204284 0.000000
0.799885 0.214773 0.000000
0.835318 0.224206 0.000000
0.868552 0.232200 0.000000
0.902522 0.238971 0.000000
0.934645 0.243549 0.000000
0.967863 0.246451 0.000000
1.000000 0.247433 0.000000
0.000000 0.119910 0.000000
0.079247 0.121234 0.000000
0.156894 0.125138 0.000000
0.232200 0.131448 0.000000
0.304306 0.139246 0.000000
0.368779 0.149971 0.000000
0.429229 0.162451 0.000000
0.484930 0.176320 0.000000
0.537176 0.191169 0.000000
0.585422 0.206661 0.000000
0.630661 0.222601 0.000000
0.672937 0.238358 0.000000
0.712490 0.254051 0.000000
0.751382 0.268607 0.000000
0.788747 0.282156 0.000000
0.825478 0.294067 0.000000
0.860754 0.304306 0.000000
0.896032 0.312728 0.000000
0.930489 0.318500 0.000000
0.965369 0.322256 0.000000
1.000000 0.323100 0.000000
0.000000 0.151143 0.000000
0.076430 0.152756 0.000000
0.151316 0.157151 0.000000
0.224206 0.164682 0.000000
0.294067 0.174522 0.000000
0.356427 0.187259 0.000000
0.415273 0.201929 0.000000
0.470143 0.218103 0.000000
0.521916 0.235472 0.000000
0.569401 0.253551 0.000000
0.614049 0.272215 0.000000
0.656345 0.290626 0.000000
0.696365 0.308895 0.000000
0.736025 0.326175 0.000000
0.774461 0.342167 0.000000
0.812741 0.356427 0.000000
0.850029 0.368779 0.000000
0.887523 0.378799 0.000000
0.924761 0.385790 0.000000
0.962301 0.390219 0.000000
1.000000 0.391465 0.000000
0.000000 0.184763 0.000000
0.073073 0.186588 0.000000
0.144786 0.191696 0.000000
0.214773 0.200115 0.000000
0.282156 0.211253 0.000000
0.342167 0.225539 0.000000
0.399106 0.241925 0.000000
0.452651 0.260016 0.000000
0.503569 0.279439 0.000000
0.550227 0.299691 0.000000
0.594500 0.320581 0.000000
0.636890 0.341207 0.000000
0.677525 0.361676 0.000000
0.718246 0.381142 0.000000
0.758075 0.399106 0.000000
0.798071 0.415273 0.000000
0.837549 0.429229 0.000000
0.877870 0.440463 0.000000
0.918214 0.448443 0.000000
0.958934 0.453361 0.000000
1.000000 0.454933 0.000000
0.000000 0.219733 0.000000
0.069380 0.221682 0.000000
0.137671 0.227291 0.000000
0.204284 0.236456 0.000000
0.268607 0.248618 0.000000
0.326175 0.263975 0.000000
0.381142 0.281754 0.000000
0.433208 0.301396 0.000000
0.483153 0.322589 0.000000
0.529069 0.344745 0.000000
0.572870 0.367567 0.000000
0.615286 0.390066 0.000000
0.656535 0.412174 0.000000
0.698604 0.433208 0.000000
0.739984 0.452651 0.000000
0.781897 0.470143 0.000000
0.823680 0.484930 0.000000
0.867231 0.496858 0.000000
0.911006 0.505474 0.000000
0.955342 0.510925 0.000000
1.000000 0.512738 0.000000
0.000000 0.257296 0.000000
0.065400 0.259194 0.000000
0.129777 0.265159 0.000000
0.192814 0.274702 0.000000
0.254051 0.287510 0.000000
0.308895 0.303635 0.000000
0.361676 0.322475 0.000000
0.412174 0.343465 0.000000
0.461222 0.366133 0.000000
0.506140 0.389757 0.000000
0.549479 0.414047 0.000000
0.591969 0.437923 0.000000
0.633867 0.461222 0.000000
0.677411 0.483153 0.000000
0.720561 0.503569 0.000000
0.764528 0.521916 0.000000
0.808831 0.537176 0.000000
0.855838 0.549492 0.000000
0.903268 0.558507 0.000000
0.951390 0.564342 0.000000
1.000000 0.566180 0.000000
0.000000 0.295855 0.000000
0.061127 0.297856 0.000000
0.121386 0.303992 0.000000
0.180630 0.313748 0.000000
0.238358 0.327063 0.000000
0.290626 0.343655 0.000000
0.341207 0.363110 0.000000
0.390066 0.384714 0.000000
0.437923 0.408031 0.000000
0.482056 0.432326 0.000000
0.525057 0.457290 0.000000
0.567674 0.482056 0.000000
0.610243 0.506140 0.000000
0.655255 0.529069 0.000000
0.700309 0.550227 0.000000
0.746449 0.569401 0.000000
0.793339 0.585422 0.000000
0.843884 0.598358 0.000000
0.895145 0.607851 0.000000
0.947285 0.613891 0.000000
1.000000 0.615859 0.000000
0.000000 0.337949 0.000000
0.056887 0.339978 0.000000
0.113137 0.346158 0.000000
0.168439 0.355949 0.000000
0.222601 0.369339 0.000000
0.272215 0.385951 0.000000
0.320581 0.405500 0.000000
0.367567 0.427130 0.000000
0.414047 0.450521 0.000000
0.457290 0.474943 0.000000
0.500000 0.500000 0.000000
0.542710 0.525057 0.000000
0.585953 0.549479 0.000000
0.632433 0.572870 0.000000
0.679419 0.594500 0.000000
0.727785 0.614049 0.000000
0.777399 0.630661 0.000000
0.831561 0.644051 0.000000
0.886863 0.653842 0.000000
0.943113 0.660022 0.000000
1.000000 0.662051 0.000000
0.000000 0.384141 0.000000
0.052715 0.386109 0.000000
0.104855 0.392149 0.000000
0.156116 0.401642 0.000000
0.206661 0.414578 0.000000
0.253551 0.430599 0.000000
0.299691 0.449773 0.000000
0.344745 0.470931 0.000000
0.389757 0.493860 0.000000
0.432326 0.517944 0.000000
0.474943 0.542710 0.000000
0.517944 0.567674 0.000000
0.562077 0.591969 0.000000
0.609934 0.615286 0.000000
0.658793 0.636890 0.000000
0.709374 0.656345 0.000000
0.761642 0.672937 0.000000
0.819370 0.686252 0.000000
0.878614 0.696008 0.000000
0.938873 0.702144 0.000000
1.000000 0.704145 0.000000
0.000000 0.433820 0.000000
0.048610 0.435658 0.000000
0.096732 0.441493 0.000000
0.144162 0.450508 0.000000
0.191169 0.462824 0.000000
0.235472 0.478084 0.000000
0.279439 0.496431 0.000000
0.322589 0.516847 0.000000
0.366133 0.538778 0.000000
0.408031 0.562077 0.000000
0.450521 0.585953 0.000000
0.493860 0.610243 0.000000
0.538778 0.633867 0.000000
0.587826 0.656535 0.000000
0.638324 0.677525 0.000000
0.691105 0.696365 0.000000
0.745949 0.712490 0.000000
0.807186 0.725298 0.000000
0.870223 0.734841 0.000000
0.934600 0.740806 0.000000
1.000000 0.742704 0.000000
0.000000 0.487262 0.000000
0.044658 0.489075 0.000000
0.088994 0.494526 0.000000
0.132769 0.503142 0.000000
0.176320 0.515070 0.000000
0.218103 0.529857 0.000000
0.260016 0.547349 0.000000
0.301396 0.566792 0.000000
0.343465 0.587826 0.000000
0.384714 0.609934 0.000000
0.427130 0.632433 0.000000
0.470931 0.655255 0.000000
0.516847 0.677411 0.000000
0.566792 0.698604 0.000000
0.618858 0.718246 0.000000
0.673825 0.736025 0.000000
0.731393 0.751382 0.000000
0.795716 0.763544 0.000000
0.862329 0.772709 0.000000
0.930620 0.778318 0.000000
1.000000 0.780267 0.000000
0.000000 0.545067 0.000000
0.041066 0.546639 0.000000
0.081786 0.551557 0.000000
0.122130 0.559537 0.000000
0.162451 0.570771 0.000000
0.201929 0.584727 0.000000
0.241925 0.600894 0.000000
0.281754 0.618858 0.000000
0.322475 0.638324 0.000000
0.363110 0.658793 0.000000
0.405500 0.679419 0.000000
0.449773 0.700309 0.000000
0.496431 0.720561 0.000000
0.547349 0.739984 0.000000
0.600894 0.758075 0.000000
0.657833 0.774461 0.000000
0.717844 0.788747 0.000000
0.785227 0.799885 0.000000
0.855214 0.808304 0.000000
0.926927 0.813412 0.000000
1.000000 0.815237 0.000000
0.000000 0.608535 0.000000
0.037699 0.609781 0.000000
0.075239 0.614210 0.000000
0.112477 0.621201 0.000000
0.149971 0.631221 0.000000
0.187259 0.643573 0.000000
0.225539 0.657833 0.000000
0.263975 0.673825 0.000000
0.303635 0.691105 0.000000
0.343655 0.709374 0.000000
0.385951 0.727785 0.000000
0.430599 0.746449 0.000000
0.478084 0.764528 0.000000
0.529857 0.781897 0.000000
0.584727 0.798071 0.000000
0.643573 0.812741 0.000000
0.705933 0.825478 0.000000
0.775794 0.835318 0.000000
0.848684 0.842849 0.000000
0.923570 0.847244 0.000000
1.000000 0.848857 0.000000
0.000000 0.676900 0.000000
0.034631 0.677744 0.000000
0.069511 0.681500 0.000000
0.103968 0.687272 0.000000
0.139246 0.695694 0.000000
0.174522 0.705933 0.000000
0.211253 0.717844 0.000000
0.248618 0.731393 0.000000
0.287510 0.745949 0.000000
0.327063 0.761642 0.000000
0.369339 0.777399 0.000000
0.414578 0.793339 0.000000
0.462824 0.808831 0.000000
0.515070 0.823680 0.000000
0.570771 0.837549 0.000000
0.631221 0.850029 0.000000
0.695694 0.860754 0.000000
0.767800 0.868552 0.000000
0.843106 0.874862 0.000000
0.920753 0.878766 0.000000
1.000000 0.880090 0.000000
0.000000 0.752567 0.000000
0.032137 0.753549 0.000000
0.065355 0.756451 0.000000
0.097478 0.761029 0.000000
0.131448 0.767800 0.000000
0.164682 0.775794 0.000000
0.200115 0.785227 0.000000
0.236456 0.795716 0.000000
0.274702 0.807186 0.000000
0.313748 0.819370 0.000000
0.355949 0.831561 0.000000
0.401642 0.843884 0.000000
0.450508 0.855838 0.000000
0.503142 0.867231 0.000000
0.559537 0.877870 0.000000
0.621201 0.887523 0.000000
0.687272 0.896032 0.000000
0.761029 0.902522 0.000000
0.838420 0.907443 0.000000
0.918390 0.910189 0.000000
1.000000 0.911250 0.000000
0.000000 0.832554 0.000000
0.030244 0.833291 0.000000
0.061809 0.835235 0.000000
0.092557 0.838420 0.000000
0.125138 0.843106 0.000000
0.157151 0.848684 0.000000
0.191696 0.855214 0.000000
0.227291 0.862329 0.000000
0.265159 0.870223 0.000000
0.303992 0.878614 0.000000
0.346158 0.886863 0.000000
0.392149 0.895145 0.000000
0.441493 0.903268 0.000000
0.494526 0.911006 0.000000
0.551557 0.918214 0.000000
0.614210 0.924761 0.000000
0.681500 0.930489 0.000000
0.756451 0.934645 0.000000
0.835235 0.938191 0.000000
0.916682 0.940416 0.000000
1.000000 0.941310 0.000000
0.000000 0.915329 0.000000
0.029314 0.915688 0.000000
0.059584 0.916682 0.000000
0.089811 0.918390 0.000000
0.121234 0.920753 0.000000
0.152756 0.923570 0.000000
0.186588 0.926927 0.000000
0.221682 0.930620 0.000000
0.259194 0.934600 0.000000
0.297856 0.938873 0.000000
0.339978 0.943113 0.000000
0.386109 0.947285 0.000000
0.435658 0.951390 0.000000
0.489075 0.955342 0.000000
0.546639 0.958934 0.000000
0.609781 0.962301 0.000000
0.677744 0.965369 0.000000
0.753549 0.967863 0.000000
0.833291 0.969756 0.000000
0.915688 0.970686 0.000000
1.000000 0.971113 0.000000
0.000000 1.000000 0.000000
0.028887 1.000000 0.000000
0.058690 1.000000 0.000000
0.088750 1.000000 0.000000
0.119910 1.000000 0.000000
0.151143 1.000000 0.000000
0.184763 1.000000 0.000000
0.219733 1.000000 0.000000
0.257296 1.000000 0.000000
0.295855 1.000000 0.000000
0.337949 1.000000 0.000000
0.384141 1.000000 0.000000
0.433820 1.000000 0.000000
0.487262 1.000000 0.000000
0.545067 1.000000 0.000000
0.608535 1.000000 0.000000
0.676900 1.000000 0.000000
0.752567 1.000000 0.000000
0.832554 1.000000 0.000000
0.915329 1.000000 0.000000
1.000000 1.000000 0.000000
0.000000 0.000000 0.082500
0.084671 0.000000 0.082500
0.167446 0.000000 0.082500
0.247433 0.000000 0.082500
0.323100 0.000000 0.082500
0.391465 0.000000 0.082500
0.454933 0.000000 0.082500
0.512738 0.000000 0.082500
0.566180 0.000000 0.082500
0.615859 0.000000 0.082500
0.662051 0.000000 0.082500
0.704145 0.000000 0.082500
0.742704 0.000000 0.082500
0.780267 0.000000 0.082500
0.815237 0.000000 0.082500
0.848857 0.000000 0.082500
0.880090 0.000000 0.082500
0.911250 0.000000 0.082500
0.941310 0.000000 0.082500
0.971113 0.000000 0.082500
1.000000 0.000000 0.082500
0.000000 0.028887 0.082500
0.084312 0.029314 0.082500
0.166709 0.030244 0.082500
0.246451 0.032137 0.082500
0.322256 0.034631 0.082500
0.390219 0.037699 0.082500
0.453361 0.041066 0.082500
0.510925 0.044658 0.082500
0.564342 0.048610 0.082500
0.613891 0.052715 0.082500
0.660022 0.056887 0.082500
0.702144 0.061127 0.082500
0.740806 0.065400 0.082500
0.778318 0.069380 0.082500
0.813412 0.073073 0.082500
0.847244 0.076430 0.082500
0.878766 0.079247 0.082500
0.910189 0.081610 0.082500
0.940416 0.083318 0.082500
0.970686 0.084312 0.082500
1.000000 0.084671 0.082500
0.000000 0.058690 0.082500
0.083318 0.059584 0.082500
0.164765 0.061809 0.082500
0.243549 0.065355 0.082500
0.318500 0.069511 0.082500
0.385790 0.075239 0.082500
0.448443 0.081786 0.082500
0.505474 0.088994 0.082500
0.558507 0.096732 0.082500
0.607851 0.104855 0.082500
0.653842 0.113137 0.082500
0.696008 0.121386 0.082500
0.734841 0.129777 0.082500
0.772709 0.137671 0.082500
0.808304 0.144786 0.082500
0.842849 0.151316 0.082500
0.874862 0.156894 0.082500
0.907443 0.161580 0.082500
0.938191 0.164765 0.082500
0.969756 0.166709 0.082500
1.000000 0.167446 0.082500
0.000000 0.088750 0.082500
0.081610 0.089811 0.082500
0.161580 0.092557 0.082500
0.238971 0.097478 0.082500
0.312728 0.103968 0.082500
0.378799 0.112477 0.082500
0.440463 0.122130 0.082500
0.496858 0.132769 0.082500
0.549492 0.144162 0.082500
0.598358 0.156116 0.082500
0.644051 0.168439 0.082500
0.686252 0.180630 0.082500
0.725298 0.192814 0.082500
0.763544 0.204284 0.082500
0.799885 0.214773 0.082500
0.835318 0.224206 0.082500
0.868552 0.232200 0.082500
0.902522 0.238971 0.082500
0.934645 0.243549 0.082500
0.967863 0.246451 0.082500
1.000000 0.247433 0.082500
0.000000 0.119910 0.082500
0.079247 0.121234 0.082500
0.156894 0.125138 0.082500
0.232200 0.131448 0.082500
0.304306 0.139246 0.082500
0.368779 0.149971 0.082500
0.429229 0.162451 0.082500
0.484930 0.176320 0.082500
0.537176 0.191169 0.082500
0.585422 0.206661 0.082500
0.630661 0.222601 0.082500
0.672937 0.238358 0.082500
0.712490 0.254051 0.082500
0.751382 0.268607 0.082500
0.788747 0.282156 0.082500
0.825478 0.294067 0.082500
0.860754 0.304306 0.082500
0.896032 0.312728 0.082500
0.930489 0.318500 0.082500
0.965369 0.322256 0.082500
1.000000 0.323100 0.082500
0.000000 0.151143 0.082500
0.076430 0.152756 0.082500
0.151316 0.157151 0.082500
0.224206 0.164682 0.082500
0.294067 0.174522 0.082500
0.356427 0.187259 0.082500
0.415273 0.201929 0.082500
0.470143 0.218103 0.082500
0.521916 0.235472 0.082500
0.569401 0.253551 0.082500
0.614049 0.272215 0.082500
0.656345 0.290626 0.082500
0.696365 0.308895 0.082500
0.736025 0.326175 0.082500
0.774461 0.342167 0.082500
0.812741 0.356427 0.082500
0.850029 0.368779 0.082500
0.887523 0.378799 0.082500
0.924761 0.385790 0.082500
0.962301 0.390219 0.082500
1.000000 0.391465 0.082500
0.000000 0.184763 0.082500
0.073073 0.186588 0.082500
0.144786 0.191696 0.082500
0.214773 0.200115 0.082500
0.282156 0.211253 0.082500
0.342167 0.225539 0.082500
0.399106 0.241925 0.082500
0.452651 0.260016 0.082500
0.503569 0.279439 0.082500
0.550227 0.299691 0.082500
0.594500 0.320581 0.082500
0.636890 0.341207 0.082500
0.677525 0.361676 0.082500
0.718246 0.381142 0.082500
0.758075 0.399106 0.082500
0.798071 0.415273 0.082500
0.837549 0.429229 0.082500
0.877870 0.440463 0.082500
0.918214 0.448443 0.082500
0.958934 0.453361 0.082500
1.000000 0.454933 0.082500
0.000000 0.219733 0.082500
0.069380 0.221682 0.082500
0.137671 0.227291 0.082500
0.204284 0.236456 0.082500
0.268607 0.248618 0.082500
0.326175 0.263975 0.082500
0.381142 0.281754 0.082500
0.433208 0.301396 0.082500
0.483153 0.322589 0.082500
0.529069 0.344745 0.082500
0.572870 0.367567 0.082500
0.615286 0.390066 0.082500
0.656535 0.412174 0.082500
0.698604 0.433208 0.082500
0.739984 0.452651 0.082500
0.781897 0.470143 0.082500
0.823680 0.484930 0.082500
0.867231 0.496858 0.082500
0.911006 0.505474 0.082500
0.955342 0.510925 0.082500
1.000000 0.512738 0.082500
0.000000 0.257296 0.082500
0.065400 0.259194 0.082500
0.129777 0.265159 0.082500
0.192814 0.274702 0.082500
0.254051 0.287510 0.082500
0.308895 0.303635 0.082500
0.361676 0.322475 0.082500
0.412174 0.343465 0.082500
0.461222 0.366133 0.082500
0.506140 0.389757 0.082500
0.549479 0.414047 0.082500
0.591969 0.437923 0.082500
0.633867 0.461222 0.082500
0.677411 0.483153 0.082500
0.720561 0.503569 0.082500
0.764528 0.521916 0.082500
0.808831 0.537176 0.082500
0.855838 0.549492 0.082500
0.903268 0.558507 0.082500
0.951390 0.564342 0.082500
1.000000 0.566180 0.082500
0.000000 0.295855 0.082500
0.061127 0.297856 0.082500
0.121386 0.303992 0.082500
0.180630 0.313748 0.082500
0.238358 0.327063 0.082500
0.290626 0.343655 0.082500
0.341207 0.363110 0.082500
0.390066 0.384714 0.082500
0.437923 0.408031 0.082500
0.482056 0.432326 0.082500
0.525057 0.457290 0.082500
0.567674 0.482056 0.082500
0.610243 0.506140 0.082500
0.655255 0.529069 0.082500
0.700309 0.550227 0.082500
0.746449 0.569401 0.082500
0.793339 0.585422 0.082500
0.843884 0.598358 0.082500
0.895145 0.607851 0.082500
0.947285 0.613891 0.082500
1.000000 0.615859 0.082500
0.000000 0.337949 0.082500
0.056887 0.339978 0.082500
0.113137 0.346158 0.082500
0.168439 0.355949 0.082500
0.222601 0.369339 0.082500
0.272215 0.385951 0.082500
0.320581 0.405500 0.082500
0.367567 0.427130 0.082500
0.414047 0.450521 0.082500
0.457290 0.474943 0.082500
0.500000 0.500000 0.082500
0.542710 0.525057 0.082500
0.585953 0.549479 0.082500
0.632433 0.572870 0.082500
0.679419 0.594500 0.082500
0.727785 0.614049 0.082500
0.777399 0.630661 0.082500
0.831561 0.644051 0.082500
0.886863 0.653842 0.082500
0.943113 0.660022 0.082500
1.000000 0.662051 0.082500
0.000000 0.384141 0.082500
0.052715 0.386109 0.082500
0.104855 0.392149 0.082500
0.156116 0.401642 0.082500
0.206661 0.414578 0.082500
0.253551 0.430599 0.082500
0.299691 0.449773 0.082500
0.344745 0.470931 0.082500
0.389757 0.493860 0.082500
0.432326 0.517944 0.082500
0.474943 0.542710 0.082500
0.517944 0.567674 0.082500
0.562077 0.591969 0.082500
0.609934 0.615286 0.082500
0.658793 0.636890 0.082500
0.709374 0.656345 0.082500
0.761642 0.672937 0.082500
0.819370 0.686252 0.082500
0.878614 0.696008 0.082500
0.938873 0.702144 0.082500
1.000000 0.704145 0.082500
0.000000 0.433820 0.082500
0.048610 0.435658 0.082500
0.096732 0.441493 0.082500
0.144162 0.450508 0.082500
0.191169 0.462824 0.082500
0.235472 0.478084 0.082500
0.279439 0.496431 0.082500
0.322589 0.516847 0.082500
0.366133 0.538778 0.082500
0.408031 0.562077 0.082500
0.450521 0.585953 0.082500
0.493860 0.610243 0.082500
0.538778 0.633867 0.082500
0.587826 0.656535 0.082500
0.638324 0.677525 0.082500
0.691105 0.696365 0.082500
0.745949 0.712490 0.082500
0.807186 0.725298 0.082500
0.870223 0.734841 0.082500
0.934600 0.740806 0.082500
1.000000 0.742704 0.082500
0.000000 0.487262 0.082500
0.044658 0.489075 0.082500
0.088994 0.494526 0.082500
0.132769 0.503142 0.082500
0.176320 0.515070 0.082500
0.218103 0.529857 0.082500
0.260016 0.547349 0.082500
0.301396 0.566792 0.082500
0.343465 0.587826 0.082500
0.384714 0.609934 0.082500
0.427130 0.632433 0.082500
0.470931 0.655255 0.082500
0.516847 0.677411 0.082500
0.566792 0.698604 0.082500
0.618858 0.718246 0.082500
0.673825 0.736025 0.082500
0.731393 0.751382 0.082500
0.795716 0.763544 0.082500
0.862329 0.772709 0.082500
0.930620 0.778318 0.082500
1.000000 0.780267 0.082500
0.000000 0.545067 0.082500
0.041066 0.546639 0.082500
0.081786 0.551557 0.082500
0.122130 0.559537 0.082500