# vtk DataFile Version 2.0
Mesh for Fierro
ASCII 
DATASET UNSTRUCTURED_GRID

POINTS 2205 float
0.000000 0.000000 0.000000
0.090212 0.000000 0.000000
0.177592 0.000000 0.000000
0.261840 0.000000 0.000000
0.340403 0.000000 0.000000
0.410488 0.000000 0.000000
0.474624 0.000000 0.000000
0.532374 0.000000 0.000000
0.585170 0.000000 0.000000
0.634041 0.000000 0.000000
0.679154 0.000000 0.000000
0.719588 0.000000 0.000000
0.757123 0.000000 0.000000
0.792815 0.000000 0.000000
0.825997 0.000000 0.000000
0.857324 0.000000 0.000000
0.887699 0.000000 0.000000
0.916458 0.000000 0.000000
0.945400 0.000000 0.000000
0.972543 0.000000 0.000000
1.000000 0.000000 0.000000
0.000000 0.027457 0.000000
0.089853 0.027890 0.000000
0.176899 0.028981 0.000000
0.260604 0.030763 0.000000
0.339197 0.033193 0.000000
0.409062 0.036760 0.000000
0.472982 0.040671 0.000000
0.530458 0.044826 0.000000
0.583184 0.049344 0.000000
0.631900 0.054005 0.000000
0.676929 0.058743 0.000000
0.717408 0.063566 0.000000
0.754948 0.068455 0.000000
0.790627 0.072960 0.000000
0.823905 0.077139 0.000000
0.855538 0.080900 0.000000
0.886103 0.084083 0.000000
0.915196 0.086734 0.000000
0.944442 0.088652 0.000000
0.972110 0.089853 0.000000
1.000000 0.090212 0.000000
0.000000 0.054600 0.000000
0.088652 0.055558 0.000000
0.174547 0.057718 0.000000
0.257333 0.061988 0.000000
0.335091 0.067188 0.000000
0.404200 0.073790 0.000000
0.467558 0.081189 0.000000
0.524490 0.089299 0.000000
0.576765 0.098022 0.000000
0.625226 0.107147 0.000000
0.670114 0.116484 0.000000
0.710638 0.125778 0.000000
0.748255 0.135334 0.000000
0.784369 0.144179 0.000000
0.818217 0.152228 0.000000
0.850568 0.159452 0.000000
0.882046 0.165809 0.000000
0.911790 0.170966 0.000000
0.942282 0.174547 0.000000
0.971019 0.176899 0.000000
1.000000 0.177592 0.000000
0.000000 0.083542 0.000000
0.086734 0.084804 0.000000
0.170966 0.088210 0.000000
0.252120 0.093695 0.000000
0.328634 0.100567 0.000000
0.396427 0.110177 0.000000
0.458739 0.121083 0.000000
0.514934 0.133057 0.000000
0.566763 0.145813 0.000000
0.614699 0.159174 0.000000
0.659258 0.172992 0.000000
0.699833 0.186688 0.000000
0.737414 0.200473 0.000000
0.774061 0.213325 0.000000
0.808659 0.225076 0.000000
0.842220 0.235598 0.000000
0.874500 0.244663 0.000000
0.906305 0.252120 0.000000
0.938012 0.257333 0.000000
0.969237 0.260604 0.000000
1.000000 0.261840 0.000000
0.000000 0.112301 0.000000
0.084083 0.113897 0.000000
0.165809 0.117954 0.000000
0.244663 0.125500 0.000000
0.319261 0.134784 0.000000
0.385215 0.146910 0.000000
0.446214 0.160828 0.000000
0.501665 0.176277 0.000000
0.553067 0.192838 0.000000
0.600318 0.210117 0.000000
0.644407 0.227936 0.000000
0.685143 0.245579 0.000000
0.723065 0.263230 0.000000
0.760488 0.279488 0.000000
0.796231 0.294535 0.000000
0.831500 0.307856 0.000000
0.865216 0.319261 0.000000
0.899433 0.328634 0.000000
0.932812 0.335091 0.000000
0.966807 0.339197 0.000000
1.000000 0.340403 0.000000
0.000000 0.142676 0.000000
0.080900 0.144462 0.000000
0.159452 0.149432 0.000000
0.235598 0.157780 0.000000
0.307856 0.168500 0.000000
0.371511 0.182827 0.000000
0.430775 0.199296 0.000000
0.485302 0.217426 0.000000
0.536179 0.236778 0.000000
0.582575 0.256893 0.000000
0.625991 0.277711 0.000000
0.666759 0.298256 0.000000
0.705049 0.318686 0.000000
0.743194 0.337926 0.000000
0.780186 0.355647 0.000000
0.817173 0.371511 0.000000
0.853090 0.385215 0.000000
0.889823 0.396427 0.000000
0.926210 0.404200 0.000000
0.963240 0.409062 0.000000
1.000000 0.410488 0.000000
0.000000 0.174003 0.000000
0.077139 0.176095 0.000000
0.152228 0.181783 0.000000
0.225076 0.191341 0.000000
0.294535 0.203769 0.000000
0.355647 0.219814 0.000000
0.412901 0.238158 0.000000
0.466030 0.258381 0.000000
0.515958 0.280015 0.000000
0.561420 0.302500 0.000000
0.604361 0.325755 0.000000
0.645238 0.348704 0.000000
0.684103 0.371478 0.000000
0.723302 0.393039 0.000000
0.761842 0.412901 0.000000
0.800704 0.430775 0.000000
0.839172 0.446214 0.000000
0.878917 0.458739 0.000000
0.918811 0.467558 0.000000
0.959329 0.472982 0.000000
1.000000 0.474624 0.000000
0.000000 0.207185 0.000000
0.072960 0.209373 0.000000
0.144179 0.215631 0.000000
0.213325 0.225939 0.000000
0.279488 0.239512 0.000000
0.337926 0.256806 0.000000
0.393039 0.276698 0.000000
0.444577 0.298617 0.000000
0.493441 0.322119 0.000000
0.538043 0.346637 0.000000
0.580427 0.371957 0.000000
0.621309 0.396877 0.000000
0.660827 0.421333 0.000000
0.701383 0.444577 0.000000
0.741619 0.466030 0.000000
0.782574 0.485302 0.000000
0.823723 0.501665 0.000000
0.866943 0.514934 0.000000
0.910701 0.524490 0.000000
0.955174 0.530458 0.000000
1.000000 0.532374 0.000000
0.000000 0.242877 0.000000
0.068455 0.245052 0.000000
0.135334 0.251745 0.000000
0.200473 0.262586 0.000000
0.263230 0.276935 0.000000
0.318686 0.294951 0.000000
0.371478 0.315897 0.000000
0.421333 0.339173 0.000000
0.469248 0.364250 0.000000
0.512756 0.390314 0.000000
0.554594 0.417188 0.000000
0.595537 0.443572 0.000000
0.635750 0.469248 0.000000
0.677881 0.493441 0.000000
0.719985 0.515958 0.000000
0.763222 0.536179 0.000000
0.807162 0.553067 0.000000
0.854187 0.566763 0.000000
0.901978 0.576765 0.000000
0.950656 0.583184 0.000000
1.000000 0.585170 0.000000
0.000000 0.280412 0.000000
0.063566 0.282592 0.000000
0.125778 0.289362 0.000000
0.186688 0.300167 0.000000
0.245579 0.314857 0.000000
0.298256 0.333241 0.000000
0.348704 0.354762 0.000000
0.396877 0.378691 0.000000
0.443572 0.404463 0.000000
0.486225 0.431258 0.000000
0.527689 0.458864 0.000000
0.568742 0.486225 0.000000
0.609686 0.512756 0.000000
0.653363 0.538043 0.000000
0.697500 0.561420 0.000000
0.743107 0.582575 0.000000
0.789883 0.600318 0.000000
0.840826 0.614699 0.000000
0.892853 0.625226 0.000000
0.945995 0.631900 0.000000
1.000000 0.634041 0.000000
0.000000 0.320846 0.000000
0.058743 0.323071 0.000000
0.116484 0.329886 0.000000
0.172992 0.340742 0.000000
0.227936 0.355593 0.000000
0.277711 0.374009 0.000000
0.325755 0.395639 0.000000
0.371957 0.419573 0.000000
0.417188 0.445406 0.000000
0.458864 0.472311 0.000000
0.500000 0.500000 0.000000
0.541136 0.527689 0.000000
0.582812 0.554594 0.000000
0.628043 0.580427 0.000000
0.674245 0.604361 0.000000
0.722289 0.625991 0.000000
0.772064 0.644407 0.000000
0.827008 0.659258 0.000000
0.883516 0.670114 0.000000
0.941257 0.676929 0.000000
1.000000 0.679154 0.000000
0.000000 0.365959 0.000000
0.054005 0.368100 0.000000
0.107147 0.374774 0.000000
0.159174 0.385301 0.000000
0.210117 0.399682 0.000000
0.256893 0.417425 0.000000
0.302500 0.438580 0.000000
0.346637 0.461957 0.000000
0.390314 0.487244 0.000000
0.431258 0.513775 0.000000
0.472311 0.541136 0.000000
0.513775 0.568742 0.000000
0.556428 0.595537 0.000000
0.603123 0.621309 0.000000
0.651296 0.645238 0.000000
0.701744 0.666759 0.000000
0.754421 0.685143 0.000000
0.813312 0.699833 0.000000
0.874222 0.710638 0.000000
0.936434 0.717408 0.000000
1.000000 0.719588 0.000000
0.000000 0.414830 0.000000
0.049344 0.416816 0.000000
0.098022 0.423235 0.000000
0.145813 0.433237 0.000000
0.192838 0.446933 0.000000
0.236778 0.463821 0.000000
0.280015 0.484042 0.000000
0.322119 0.506559 0.000000
0.364250 0.530752 0.000000
0.404463 0.556428 0.000000
0.445406 0.582812 0.000000
0.487244 0.609686 0.000000
0.530752 0.635750 0.000000
0.578667 0.660827 0.000000
0.628522 0.684103 0.000000
0.681314 0.705049 0.000000
0.736770 0.723065 0.000000
0.799527 0.737414 0.000000
0.864666 0.748255 0.000000
0.931545 0.754948 0.000000
1.000000 0.757123 0.000000
0.000000 0.467626 0.000000
0.044826 0.469542 0.000000
0.089299 0.475510 0.000000
0.133057 0.485066 0.000000
0.176277 0.498335 0.000000
0.217426 0.514698 0.000000
0.258381 0.533970 0.000000
0.298617 0.555423 0.000000
0.339173 0.578667 0.000000
0.378691 0.603123 0.000000
0.419573 0.628043 0.000000
0.461957 0.653363 0.000000
0.506559 0.677881 0.000000
0.555423 0.701383 0.000000
0.606961 0.723302 0.000000
0.662074 0.743194 0.000000
0.720512 0.760488 0.000000
0.786675 0.774061 0.000000
0.855821 0.784369 0.000000
0.927040 0.790627 0.000000
1.000000 0.792815 0.000000
0.000000 0.525376 0.000000
0.040671 0.527018 0.000000
0.081189 0.532442 0.000000
0.121083 0.541261 0.000000
0.160828 0.553786 0.000000
0.199296 0.569225 0.000000
0.238158 0.587099 0.000000
0.276698 0.606961 0.000000
0.315897 0.628522 0.000000
0.354762 0.651296 0.000000
0.395639 0.674245 0.000000
0.438580 0.697500 0.000000
0.484042 0.719985 0.000000
0.533970 0.741619 0.000000
0.587099 0.761842 0.000000
0.644353 0.780186 0.000000
0.705465 0.796231 0.000000
0.774924 0.808659 0.000000
0.847772 0.818217 0.000000
0.922861 0.823905 0.000000
1.000000 0.825997 0.000000
0.000000 0.589512 0.000000
0.036760 0.590938 0.000000
0.073790 0.595800 0.000000
0.110177 0.603573 0.000000
0.146910 0.614785 0.000000
0.182827 0.628489 0.000000
0.219814 0.644353 0.000000
0.256806 0.662074 0.000000
0.294951 0.681314 0.000000
0.333241 0.701744 0.000000
0.374009 0.722289 0.000000
0.417425 0.743107 0.000000
0.463821 0.763222 0.000000
0.514698 0.782574 0.000000
0.569225 0.800704 0.000000
0.628489 0.817173 0.000000
0.692144 0.831500 0.000000
0.764402 0.842220 0.000000
0.840548 0.850568 0.000000
0.919100 0.855538 0.000000
1.000000 0.857324 0.000000
0.000000 0.659597 0.000000
0.033193 0.660803 0.000000
0.067188 0.664909 0.000000
0.100567 0.671366 0.000000
0.134784 0.680739 0.000000
0.168500 0.692144 0.000000
0.203769 0.705465 0.000000
0.239512 0.720512 0.000000
0.276935 0.736770 0.000000
0.314857 0.754421 0.000000
0.355593 0.772064 0.000000
0.399682 0.789883 0.000000
0.446933 0.807162 0.000000
0.498335 0.823723 0.000000
0.553786 0.839172 0.000000
0.614785 0.853090 0.000000
0.680739 0.865216 0.000000
0.755337 0.874500 0.000000
0.834191 0.882046 0.000000
0.915917 0.886103 0.000000
1.000000 0.887699 0.000000
0.000000 0.738160 0.000000
0.030763 0.739396 0.000000
0.061988 0.742667 0.000000
0.093695 0.747880 0.000000
0.125500 0.755337 0.000000
0.157780 0.764402 0.000000
0.191341 0.774924 0.000000
0.225939 0.786675 0.000000
0.262586 0.799527 0.000000
[...]
POINT_DATA 2205 
VECTORS pos float 
0.000000 0.000000 0.000000
0.090212 0.000000 0.000000
0.177592 0.000000 0.000000
0.261840 0.000000 0.000000
0.340403 0.000000 0.000000
0.410488 0.000000 0.000000
0.474624 0.000000 0.000000
0.532374 0.000000 0.000000
0.585170 0.000000 0.000000
0.634041 0.000000 0.000000
0.679154 0.000000 0.000000
0.719588 0.000000 0.000000
0.757123 0.000000 0.000000
0.792815 0.000000 0.000000
0.825997 0.000000 0.000000
0.857324 0.000000 0.000000
0.887699 0.000000 0.000000
0.916458 0.000000 0.000000
0.945400 0.000000 0.000000
0.972543 0.000000 0.000000
1.000000 0.000000 0.000000
0.000000 0.027457 0.000000
0.089853 0.027890 0.000000
0.176899 0.028981 0.000000
0.260604 0.030763 0.000000
0.339197 0.033193 0.000000
0.409062 0.036760 0.000000
0.472982 0.040671 0.000000
0.530458 0.044826 0.000000
0.583184 0.049344 0.000000
0.631900 0.054005 0.000000
0.676929 0.058743 0.000000
0.717408 0.063566 0.000000
0.754948 0.068455 0.000000
0.790627 0.072960 0.000000
0.823905 0.077139 0.000000
0.855538 0.080900 0.000000
0.886103 0.084083 0.000000
0.915196 0.086734 0.000000
0.944442 0.088652 0.000000
0.972110 0.089853 0.000000
1.000000 0.090212 0.000000
0.000000 0.054600 0.000000
0.088652 0.055558 0.000000
0.174547 0.057718 0.000000
0.257333 0.061988 0.000000
0.335091 0.067188 0.000000
0.404200 0.073790 0.000000
0.467558 0.081189 0.000000
0.524490 0.089299 0.000000
0.576765 0.098022 0.000000
0.625226 0.107147 0.000000
0.670114 0.116484 0.000000
0.710638 0.125778 0.000000
0.748255 0.135334 0.000000
0.784369 0.144179 0.000000
0.818217 0.152228 0.000000
0.850568 0.159452 0.000000
0.882046 0.165809 0.000000
0.911790 0.170966 0.000000
0.942282 0.174547 0.000000
0.971019 0.176899 0.000000
1.000000 0.177592 0.000000
0.000000 0.083542 0.000000
0.086734 0.084804 0.000000
0.170966 0.088210 0.000000
0.252120 0.093695 0.000000
0.328634 0.100567 0.000000
0.396427 0.110177 0.000000
0.458739 0.121083 0.000000
0.514934 0.133057 0.000000
0.566763 0.145813 0.000000
0.614699 0.159174 0.000000
0.659258 0.172992 0.000000
0.699833 0.186688 0.000000
0.737414 0.200473 0.000000
0.774061 0.213325 0.000000
0.808659 0.225076 0.000000
0.842220 0.235598 0.000000
0.874500 0.244663 0.000000
0.906305 0.252120 0.000000
0.938012 0.257333 0.000000
0.969237 0.260604 0.000000
1.000000 0.261840 0.000000
0.000000 0.112301 0.000000
0.084083 0.113897 0.000000
0.165809 0.117954 0.000000
0.244663 0.125500 0.000000
0.319261 0.134784 0.000000
0.385215 0.146910 0.000000
0.446214 0.160828 0.000000
0.501665 0.176277 0.000000
0.553067 0.192838 0.000000
0.600318 0.210117 0.000000
0.644407 0.227936 0.000000
0.685143 0.245579 0.000000
0.723065 0.263230 0.000000
0.760488 0.279488 0.000000
0.796231 0.294535 0.000000
0.831500 0.307856 0.000000
0.865216 0.319261 0.000000
0.899433 0.328634 0.000000
0.932812 0.335091 0.000000
0.966807 0.339197 0.000000
1.000000 0.340403 0.000000
0.000000 0.142676 0.000000
0.080900 0.144462 0.000000
0.159452 0.149432 0.000000
0.235598 0.157780 0.000000
0.307856 0.168500 0.000000
0.371511 0.182827 0.000000
0.430775 0.199296 0.000000
0.485302 0.217426 0.000000
0.536179 0.236778 0.000000
0.582575 0.256893 0.000000
0.625991 0.277711 0.000000
0.666759 0.298256 0.000000
0.705049 0.318686 0.000000
0.743194 0.337926 0.000000
0.780186 0.355647 0.000000
0.817173 0.371511 0.000000
0.853090 0.385215 0.000000
0.889823 0.396427 0.000000
0.926210 0.404200 0.000000
0.963240 0.409062 0.000000
1.000000 0.410488 0.000000
0.000000 0.174003 0.000000
0.077139 0.176095 0.000000
0.152228 0.181783 0.000000
0.225076 0.191341 0.000000
0.294535 0.203769 0.000000
0.355647 0.219814 0.000000
0.412901 0.238158 0.000000
0.466030 0.258381 0.000000
0.515958 0.280015 0.000000
0.561420 0.302500 0.000000
0.604361 0.325755 0.000000
0.645238 0.348704 0.000000
0.684103 0.371478 0.000000
0.723302 0.393039 0.000000
0.761842 0.412901 0.000000
0.800704 0.430775 0.000000
0.839172 0.446214 0.000000
0.878917 0.458739 0.000000
0.918811 0.467558 0.000000
0.959329 0.472982 0.000000
1.000000 0.474624 0.000000
0.000000 0.207185 0.000000
0.072960 0.209373 0.000000
0.144179 0.215631 0.000000
0.213325 0.225939 0.000000
0.279488 0.239512 0.000000
0.337926 0.256806 0.000000
0.393039 0.276698 0.000000
0.444577 0.298617 0.000000
0.493441 0.322119 0.000000
0.538043 0.346637 0.000000
0.580427 0.371957 0.000000
0.621309 0.396877 0.000000
0.660827 0.421333 0.000000
0.701383 0.444577 0.000000
0.741619 0.466030 0.000000
0.782574 0.485302 0.000000
0.823723 0.501665 0.000000
0.866943 0.514934 0.000000
0.910701 0.524490 0.000000
0.955174 0.530458 0.000000
1.000000 0.532374 0.000000
0.000000 0.242877 0.000000
0.068455 0.245052 0.000000
0.135334 0.251745 0.000000
0.200473 0.262586 0.000000
0.263230 0.276935 0.000000
0.318686 0.294951 0.000000
0.371478 0.315897 0.000000
0.421333 0.339173 0.000000
0.469248 0.364250 0.000000
0.512756 0.390314 0.000000
0.554594 0.417188 0.000000
0.595537 0.443572 0.000000
0.635750 0.469248 0.000000
0.677881 0.493441 0.000000
0.719985 0.515958 0.000000
0.763222 0.536179 0.000000
0.807162 0.553067 0.000000
0.854187 0.566763 0.000000
0.901978 0.576765 0.000000
0.950656 0.583184 0.000000
1.000000 0.585170 0.000000
0.000000 0.280412 0.000000
0.063566 0.282592 0.000000
0.125778 0.289362 0.000000
0.186688 0.300167 0.000000
0.245579 0.314857 0.000000
0.298256 0.333241 0.000000
0.348704 0.354762 0.000000
0.396877 0.378691 0.000000
0.443572 0.404463 0.000000
0.486225 0.431258 0.000000
0.527689 0.458864 0.000000
0.568742 0.486225 0.000000
0.609686 0.512756 0.000000
0.653363 0.538043 0.000000
0.697500 0.561420 0.000000
0.743107 0.582575 0.000000
0.789883 0.600318 0.000000
0.840826 0.614699 0.000000
0.892853 0.625226 0.000000
0.945995 0.631900 0.000000
1.000000 0.634041 0.000000
0.000000 0.320846 0.000000
0.058743 0.323071 0.000000
0.116484 0.329886 0.000000
0.172992 0.340742 0.000000
0.227936 0.355593 0.000000
0.277711 0.374009 0.000000
0.325755 0.395639 0.000000
0.371957 0.419573 0.000000
0.417188 0.445406 0.000000
0.458864 0.472311 0.000000
0.500000 0.500000 0.000000
0.541136 0.527689 0.000000
0.582812 0.554594 0.000000
0.628043 0.580427 0.000000
0.674245 0.604361 0.000000
0.722289 0.625991 0.000000
0.772064 0.644407 0.000000
0.827008 0.659258 0.000000
0.883516 0.670114 0.000000
0.941257 0.676929 0.000000
1.000000 0.679154 0.000000
0.000000 0.365959 0.000000
0.054005 0.368100 0.000000
0.107147 0.374774 0.000000
0.159174 0.385301 0.000000
0.210117 0.399682 0.000000
0.256893 0.417425 0.000000
0.302500 0.438580 0.000000
0.346637 0.461957 0.000000
0.390314 0.487244 0.000000
0.431258 0.513775 0.000000
0.472311 0.541136 0.000000
0.513775 0.568742 0.000000
0.556428 0.595537 0.000000
0.603123 0.621309 0.000000
0.651296 0.645238 0.000000
0.701744 0.666759 0.000000
0.754421 0.685143 0.000000
0.813312 0.699833 0.000000
0.874222 0.710638 0.000000
0.936434 0.717408 0.000000
1.000000 0.719588 0.000000
0.000000 0.414830 0.000000
0.049344 0.416816 0.000000
0.098022 0.423235 0.000000
0.145813 0.433237 0.000000
0.192838 0.446933 0.000000
0.236778 0.463821 0.000000
0.280015 0.484042 0.000000
0.322119 0.506559 0.000000
0.364250 0.530752 0.000000
0.404463 0.556428 0.000000
0.445406 0.582812 0.000000
0.487244 0.609686 0.000000
0.530752 0.635750 0.000000
0.578667 0.660827 0.000000
0.628522 0.684103 0.000000
0.681314 0.705049 0.000000
0.736770 0.723065 0.000000
0.799527 0.737414 0.000000
0.864666 0.748255 0.000000
0.931545 0.754948 0.000000
1.000000 0.757123 0.000000
0.000000 0.467626 0.000000
0.044826 0.469542 0.000000
0.089299 0.475510 0.000000
0.133057 0.485066 0.000000
0.176277 0.498335 0.000000
0.217426 0.514698 0.000000
0.258381 0.533970 0.000000
0.298617 0.555423 0.000000
0.339173 0.578667 0.000000
0.378691 0.603123 0.000000
0.419573 0.628043 0.000000
0.461957 0.653363 0.000000
0.506559 0.677881 0.000000
0.555423 0.701383 0.000000
0.606961 0.723302 0.000000
0.662074 0.743194 0.000000
0.720512 0.760488 0.000000
0.786675 0.774061 0.000000
0.855821 0.784369 0.000000
0.927040 0.790627 0.000000
1.000000 0.792815 0.000000
0.000000 0.525376 0.000000
0.040671 0.527018 0.000000
0.081189 0.532442 0.000000
0.121083 0.541261 0.000000
0.160828 0.553786 0.000000
0.199296 0.569225 0.000000
0.238158 0.587099 0.000000
0.276698 0.606961 0.000000
0.315897 0.628522 0.000000
0.354762 0.651296 0.000000
0.395639 0.674245 0.000000
0.438580 0.697500 0.000000
0.484042 0.719985 0.000000
0.533970 0.741619 0.000000
0.587099 0.761842 0.000000
0.644353 0.780186 0.000000
0.705465 0.796231 0.000000
0.774924 0.808659 0.000000
0.847772 0.818217 0.000000
0.922861 0.823905 0.000000
1.000000 0.825997 0.000000
0.000000 0.589512 0.000000
0.036760 0.590938 0.000000
0.073790 0.595800 0.000000
0.110177 0.603573 0.000000
0.146910 0.614785 0.000000
0.182827 0.628489 0.000000
0.219814 0.644353 0.000000
0.256806 0.662074 0.000000
0.294951 0.681314 0.000000
0.333241 0.701744 0.000000
0.374009 0.722289 0.000000
0.417425 0.743107 0.000000
0.463821 0.763222 0.000000
0.514698 0.782574 0.000000
0.569225 0.800704 0.000000
0.628489 0.817173 0.000000
0.692144 0.831500 0.000000
0.764402 0.842220 0.000000
0.840548 0.850568 0.000000
0.919100 0.855538 0.000000
1.000000 0.857324 0.000000
0.000000 0.659597 0.000000
0.033193 0.660803 0.000000
0.067188 0.664909 0.000000
0.100567 0.671366 0.000000
0.134784 0.680739 0.000000
0.168500 0.692144 0.000000
0.203769 0.705465 0.000000
0.239512 0.720512 0.000000
0.276935 0.736770 0.000000
0.314857 0.754421 0.000000
0.355593 0.772064 0.000000
0.399682 0.789883 0.000000
0.446933 0.807162 0.000000
0.498335 0.823723 0.000000
0.553786 0.839172 0.000000
0.614785 0.853090 0.000000
0.680739 0.865216 0.000000
0.755337 0.874500 0.000000
0.834191 0.882046 0.000000
0.915917 0.886103 0.000000
1.000000 0.887699 0.000000
0.000000 0.738160 0.000000
0.030763 0.739396 0.000000
0.061988 0.742667 0.000000
0.093695 0.747880 0.000000
0.125500 0.755337 0.000000
0.157780 0.764402 0.000000
0.191341 0.774924 0.000000
0.225939 0.786675 0.000000
0.262586 0.799527 0.000000
0.300167 0.813312 0.000000
0.340742 0.827008 0.000000
0.385301 0.840826 0.000000
0.433237 0.854187 0.000000
0.485066 0.866943 0.000000
0.541261 0.878917 0.000000
0.603573 0.889823 0.000000
0.671366 0.899433 0.000000
0.747880 0.906305 0.000000
0.829034 0.911790 0.000000
0.913266 0.915196 0.000000
1.000000 0.916458 0.000000
0.000000 0.822408 0.000000
0.028981 0.823101 0.000000
0.057718 0.825453 0.000000
0.088210 0.829034 0.000000
0.117954 0.834191 0.000000
0.149432 0.840548 0.000000
0.181783 0.847772 0.000000
0.215631 0.855821 0.000000
0.251745 0.864666 0.000000
0.289362 0.874222 0.000000
0.329886 0.883516 0.000000
0.374774 0.892853 0.000000
0.423235 0.901978 0.000000
0.475510 0.910701 0.000000
0.532442 0.918811 0.000000
0.595800 0.926210 0.000000
0.664909 0.932812 0.000000
0.742667 0.938012 0.000000
0.825453 0.942282 0.000000
0.911348 0.944442 0.000000
1.000000 0.945400 0.000000
0.000000 0.909788 0.000000
0.027890 0.910147 0.000000
0.055558 0.911348 0.000000
0.084804 0.913266 0.000000
0.113897 0.915917 0.000000
0.144462 0.919100 0.000000
0.176095 0.922861 0.000000
0.209373 0.927040 0.000000
0.245052 0.931545 0.000000
0.282592 0.936434 0.000000
0.323071 0.941257 0.000000
0.368100 0.945995 0.000000
0.416816 0.950656 0.000000
0.469542 0.955174 0.000000
0.527018 0.959329 0.000000
0.590938 0.963240 0.000000
0.660803 0.966807 0.000000
0.739396 0.969237 0.000000
0.823101 0.971019 0.000000
0.910147 0.972110 0.000000
1.000000 0.972543 0.000000
0.000000 1.000000 0.000000
0.027457 1.000000 0.000000
0.054600 1.000000 0.000000
0.083542 1.000000 0.000000
0.112301 1.000000 0.000000
0.142676 1.000000 0.000000
0.174003 1.000000 0.000000
0.207185 1.000000 0.000000
0.242877 1.000000 0.000000
0.280412 1.000000 0.000000
0.320846 1.000000 0.000000
0.365959 1.000000 0.000000
0.414830 1.000000 0.000000
0.467626 1.000000 0.000000
0.525376 1.000000 0.000000
0.589512 1.000000 0.000000
0.659597 1.000000 0.000000
0.738160 1.000000 0.000000
0.822408 1.000000 0.000000
0.909788 1.000000 0.000000
1.000000 1.000000 0.000000
0.000000 0.000000 0.082500
0.090212 0.000000 0.082500
0.177592 0.000000 0.082500
0.261840 0.000000 0.082500
0.340403 0.000000 0.082500
0.410488 0.000000 0.082500
0.474624 0.000000 0.082500
0.532374 0.000000 0.082500
0.585170 0.000000 0.082500
0.634041 0.000000 0.082500
0.679154 0.000000 0.082500
0.719588 0.000000 0.082500
0.757123 0.000000 0.082500
0.792815 0.000000 0.082500
0.825997 0.000000 0.082500
0.857324 0.000000 0.082500
0.887699 0.000000 0.082500
0.916458 0.000000 0.082500
0.945400 0.000000 0.082500
0.972543 0.000000 0.082500
1.000000 0.000000 0.082500
0.000000 0.027457 0.082500
0.089853 0.027890 0.082500
0.176899 0.028981 0.082500
0.260604 0.030763 0.082500
0.339197 0.033193 0.082500
0.409062 0.036760 0.082500
0.472982 0.040671 0.082500
0.530458 0.044826 0.082500
0.583184 0.049344 0.082500
0.631900 0.054005 0.082500
0.676929 0.058743 0.082500
0.717408 0.063566 0.082500
0.754948 0.068455 0.082500
0.790627 0.072960 0.082500
0.823905 0.077139 0.082500
0.855538 0.080900 0.082500
0.886103 0.084083 0.082500
0.915196 0.086734 0.082500
0.944442 0.088652 0.082500
0.972110 0.089853 0.082500
1.000000 0.090212 0.082500
0.000000 0.054600 0.082500
0.088652 0.055558 0.082500
0.174547 0.057718 0.082500
0.257333 0.061988 0.082500
0.335091 0.067188 0.082500
0.404200 0.073790 0.082500
0.467558 0.081189 0.082500
0.524490 0.089299 0.082500
0.576765 0.098022 0.082500
0.625226 0.107147 0.082500
0.670114 0.116484 0.082500
0.710638 0.125778 0.082500
0.748255 0.135334 0.082500
0.784369 0.144179 0.082500
0.818217 0.152228 0.082500
0.850568 0.159452 0.082500
0.882046 0.165809 0.082500
0.911790 0.170966 0.082500
0.942282 0.174547 0.082500
0.971019 0.176899 0.082500
1.000000 0.177592 0.082500
0.000000 0.083542 0.082500
0.086734 0.084804 0.082500
0.170966 0.088210 0.082500
0.252120 0.093695 0.082500
0.328634 0.100567 0.082500
0.396427 0.110177 0.082500
0.458739 0.121083 0.082500
0.514934 0.133057 0.082500
0.566763 0.145813 0.082500
0.614699 0.159174 0.082500
0.659258 0.172992 0.082500
0.699833 0.186688 0.082500
0.737414 0.200473 0.082500
0.774061 0.213325 0.082500
0.808659 0.225076 0.082500
0.842220 0.235598 0.082500
0.874500 0.244663 0.082500
0.906305 0.252120 0.082500
0.938012 0.257333 0.082500
0.969237 0.260604 0.082500
1.000000 0.261840 0.082500
0.000000 0.112301 0.082500
0.084083 0.113897 0.082500
0.165809 0.117954 0.082500
0.244663 0.125500 0.082500
0.319261 0.134784 0.082500
0.385215 0.146910 0.082500
0.446214 0.160828 0.082500
0.501665 0.176277 0.082500
0.553067 0.192838 0.082500
0.600318 0.210117 0.082500
0.644407 0.227936 0.082500
0.685143 0.245579 0.082500
0.723065 0.263230 0.082500
0.760488 0.279488 0.082500
0.796231 0.294535 0.082500
0.831500 0.307856 0.082500
0.865216 0.319261 0.082500
0.899433 0.328634 0.082500
0.932812 0.335091 0.082500
0.966807 0.339197 0.082500
1.000000 0.340403 0.082500
0.000000 0.142676 0.082500
0.080900 0.144462 0.082500
0.159452 0.149432 0.082500
0.235598 0.157780 0.082500
0.307856 0.168500 0.082500
0.371511 0.182827 0.082500
0.430775 0.199296 0.082500
0.485302 0.217426 0.082500
0.536179 0.236778 0.082500
0.582575 0.256893 0.082500
0.625991 0.277711 0.082500
0.666759 0.298256 0.082500
0.705049 0.318686 0.082500
0.743194 0.337926 0.082500
0.780186 0.355647 0.082500
0.817173 0.371511 0.082500
0.853090 0.385215 0.082500
0.889823 0.396427 0.082500
0.926210 0.404200 0.082500
0.963240 0.409062 0.082500
1.000000 0.410488 0.082500
0.000000 0.174003 0.082500
0.077139 0.176095 0.082500
0.152228 0.181783 0.082500
0.225076 0.191341 0.082500
0.294535 0.203769 0.082500
0.355647 0.219814 0.082500
0.412901 0.238158 0.082500
0.466030 0.258381 0.082500
0.515958 0.280015 0.082500
0.561420 0.302500 0.082500
0.604361 0.325755 0.082500
0.645238 0.348704 0.082500
0.684103 0.371478 0.082500
0.723302 0.393039 0.082500
0.761842 0.412901 0.082500
0.800704 0.430775 0.082500
0.839172 0.446214 0.082500
0.878917 0.458739 0.082500
0.918811 0.467558 0.082500
0.959329 0.472982 0.082500
1.000000 0.474624 0.082500
0.000000 0.207185 0.082500
0.072960 0.209373 0.082500
0.144179 0.215631 0.082500
0.213325 0.225939 0.082500
0.279488 0.239512 0.082500
0.337926 0.256806 0.082500
0.393039 0.276698 0.082500
0.444577 0.298617 0.082500
0.493441 0.322119 0.082500
0.538043 0.346637 0.082500
0.580427 0.371957 0.082500
0.621309 0.396877 0.082500
0.660827 0.421333 0.082500
0.701383 0.444577 0.082500
0.741619 0.466030 0.082500
0.782574 0.485302 0.082500
0.823723 0.501665 0.082500
0.866943 0.514934 0.082500
0.910701 0.524490 0.082500
0.955174 0.530458 0.082500
1.000000 0.532374 0.082500
0.000000 0.242877 0.082500
0.068455 0.245052 0.082500
0.135334 0.251745 0.082500
0.200473 0.262586 0.082500
0.263230 0.276935 0.082500
0.318686 0.294951 0.082500
0.371478 0.315897 0.082500
0.421333 0.339173 0.082500
0.469248 0.364250 0.082500
0.512756 0.390314 0.082500
0.554594 0.417188 0.082500
0.595537 0.443572 0.082500
0.635750 0.469248 0.082500
0.677881 0.493441 0.082500
0.719985 0.515958 0.082500
0.763222 0.536179 0.082500
0.807162 0.553067 0.082500
0.854187 0.566763 0.082500
0.901978 0.576765 0.082500
0.950656 0.583184 0.082500
1.000000 0.585170 0.082500
0.000000 0.280412 0.082500
0.063566 0.282592 0.082500
0.125778 0.289362 0.082500
0.186688 0.300167 0.082500
0.245579 0.314857 0.082500
0.298256 0.333241 0.082500
0.348704 0.354762 0.082500
0.396877 0.378691 0.082500
0.443572 0.404463 0.082500
0.486225 0.431258 0.082500
0.527689 0.458864 0.082500
0.568742 0.486225 0.082500
0.609686 0.512756 0.082500
0.653363 0.538043 0.082500
0.697500 0.561420 0.082500
0.743107 0.582575 0.082500
0.789883 0.600318 0.082500
0.840826 0.614699 0.082500
0.892853 0.625226 0.082500
0.945995 0.631900 0.082500
1.000000 0.634041 0.082500
0.000000 0.320846 0.082500
0.058743 0.323071 0.082500
0.116484 0.329886 0.082500
0.172992 0.340742 0.082500
0.227936 0.355593 0.082500
0.277711 0.374009 0.082500
0.325755 0.395639 0.082500
0.371957 0.419573 0.082500
0.417188 0.445406 0.082500
0.458864 0.472311 0.082500
0.500000 0.500000 0.082500
0.541136 0.527689 0.082500
0.582812 0.554594 0.082500
0.628043 0.580427 0.082500
0.674245 0.604361 0.082500
0.722289 0.625991 0.082500
0.772064 0.644407 0.082500
0.827008 0.659258 0.082500
0.883516 0.670114 0.082500
0.941257 0.676929 0.082500
1.000000 0.679154 0.082500
0.000000 0.365959 0.082500
0.054005 0.368100 0.082500
0.107147 0.374774 0.082500
0.159174 0.385301 0.082500
0.210117 0.399682 0.082500
0.256893 0.417425 0.082500
0.302500 0.438580 0.082500
0.346637 0.461957 0.082500
0.390314 0.487244 0.082500
0.431258 0.513775 0.082500
0.472311 0.541136 0.082500
0.513775 0.568742 0.082500
0.556428 0.595537 0.082500
0.603123 0.621309 0.082500
0.651296 0.645238 0.082500
0.701744 0.666759 0.082500
0.754421 0.685143 0.082500
0.813312 0.699833 0.082500
0.874222 0.710638 0.082500
0.936434 0.717408 0.082500
1.000000 0.719588 0.082500
0.000000 0.414830 0.082500
0.049344 0.416816 0.082500
0.098022 0.423235 0.082500
0.145813 0.433237 0.082500
0.192838 0.446933 0.082500
0.236778 0.463821 0.082500
0.280015 0.484042 0.082500
0.322119 0.506559 0.082500
0.364250 0.530752 0.082500
0.404463 0.556428 0.082500
0.445406 0.582812 0.082500
0.487244 0.609686 0.082500
0.530752 0.635750 0.082500
0.578667 0.660827 0.082500
0.628522 0.684103 0.082500
0.681314 0.705049 0.082500
0.736770 0.723065 0.082500
0.799527 0.737414 0.082500
0.864666 0.748255 0.082500
0.931545 0.754948 0.082500
1.000000 0.757123 0.082500
0.000000 0.467626 0.082500
0.044826 0.469542 0.082500
0.089299 0.475510 0.082500
0.133057 0.485066 0.082500
0.176277 0.498335 0.082500
0.217426 0.514698 0.082500
0.258381 0.533970 0.082500
0.298617 0.555423 0.082500
0.339173 0.578667 0.082500
0.378691 0.603123 0.082500
0.419573 0.628043 0.082500
0.461957 0.653363 0.082500
0.506559 0.677881 0.082500
0.555423 0.701383 0.082500
0.606961 0.723302 0.082500
0.662074 0.743194 0.082500
0.720512 0.760488 0.082500
0.786675 0.774061 0.082500
0.855821 0.784369 0.082500
0.927040 0.790627 0.082500
1.000000 0.792815 0.082500
0.000000 0.525376 0.082500
0.040671 0.527018 0.082500
0.081189 0.532442 0.082500
0.121083 0.541261 0.082500