# vtk DataFile Version 2.0
Mesh for Fierro
ASCII 
DATASET UNSTRUCTURED_GRID

POINTS 2205 float
0.000000 0.000000 0.000000
0.551042 0.000000 0.000000
0.814910 0.000000 0.000000
0.861841 0.000000 0.000000
0.896492 0.000000 0.000000
0.916574 0.000000 0.000000
0.931442 0.000000 0.000000
0.943229 0.000000 0.000000
0.952047 0.000000 0.000000
0.958948 0.000000 0.000000
0.964717 0.000000 0.000000
0.969384 0.000000 0.000000
0.973280 0.000000 0.000000
0.976643 0.000000 0.000000
0.979696 0.000000 0.000000
0.982702 0.000000 0.000000
0.985754 0.000000 0.000000
0.989042 0.000000 0.000000
0.992583 0.000000 0.000000
0.996259 0.000000 0.000000
1.000000 0.000000 0.000000
0.000000 0.003741 0.000000
0.548958 0.006341 0.000000
0.804266 0.027912 0.000000
0.852815 0.059489 0.000000
0.889638 0.090553 0.000000
0.908709 0.137080 0.000000
0.921906 0.179040 0.000000
0.930656 0.228305 0.000000
0.936773 0.280131 0.000000
0.941856 0.327341 0.000000
0.946446 0.370918 0.000000
0.950780 0.412109 0.000000
0.954700 0.451376 0.000000
0.958876 0.483896 0.000000
0.963256 0.510721 0.000000
0.968103 0.532628 0.000000
0.973562 0.547950 0.000000
0.980033 0.554467 0.000000
0.987101 0.548874 0.000000
0.993659 0.548958 0.000000
1.000000 0.551042 0.000000
0.000000 0.007417 0.000000
0.548874 0.012899 0.000000
0.786311 0.049777 0.000000
0.842165 0.105035 0.000000
0.880992 0.174767 0.000000
0.895160 0.249846 0.000000
0.903996 0.326103 0.000000
0.908516 0.405211 0.000000
0.908152 0.477636 0.000000
0.907466 0.533101 0.000000
0.904971 0.580370 0.000000
0.900435 0.620079 0.000000
0.894805 0.654118 0.000000
0.892522 0.682044 0.000000
0.893979 0.706002 0.000000
0.900695 0.726850 0.000000
0.912921 0.745648 0.000000
0.929929 0.766056 0.000000
0.950223 0.786311 0.000000
0.972088 0.804266 0.000000
1.000000 0.814910 0.000000
0.000000 0.010958 0.000000
0.554467 0.019967 0.000000
0.766056 0.070071 0.000000
0.833164 0.138549 0.000000
0.860631 0.240710 0.000000
0.872982 0.321257 0.000000
0.877710 0.409322 0.000000
0.870347 0.489559 0.000000
0.856996 0.555562 0.000000
0.844909 0.606421 0.000000
0.828485 0.652999 0.000000
0.813477 0.693463 0.000000
0.800077 0.730711 0.000000
0.796448 0.761730 0.000000
0.800806 0.787386 0.000000
0.813581 0.807615 0.000000
0.833823 0.822292 0.000000
0.861451 0.833164 0.000000
0.894965 0.842165 0.000000
0.940511 0.852815 0.000000
1.000000 0.861841 0.000000
0.000000 0.014246 0.000000
0.547950 0.026438 0.000000
0.745648 0.087079 0.000000
0.822292 0.166177 0.000000
0.833087 0.285257 0.000000
0.849710 0.370931 0.000000
0.841816 0.469065 0.000000
0.821127 0.541653 0.000000
0.795662 0.602924 0.000000
0.771400 0.651007 0.000000
0.744195 0.690019 0.000000
0.724558 0.719587 0.000000
0.705248 0.742445 0.000000
0.694378 0.763286 0.000000
0.691108 0.784243 0.000000
0.696347 0.807600 0.000000
0.714743 0.833087 0.000000
0.759290 0.860631 0.000000
0.825233 0.880992 0.000000
0.909447 0.889638 0.000000
1.000000 0.896492 0.000000
0.000000 0.017298 0.000000
0.532628 0.031897 0.000000
0.726850 0.099305 0.000000
0.807615 0.186419 0.000000
0.807600 0.303653 0.000000
0.825316 0.396118 0.000000
0.806526 0.485473 0.000000
0.777984 0.552018 0.000000
0.745375 0.607038 0.000000
0.712599 0.649669 0.000000
0.676134 0.684301 0.000000
0.641515 0.714267 0.000000
0.609478 0.741784 0.000000
0.593703 0.770928 0.000000
0.590463 0.798709 0.000000
0.603882 0.825316 0.000000
0.629069 0.849710 0.000000
0.678743 0.872982 0.000000
0.750154 0.895160 0.000000
0.862920 0.908709 0.000000
1.000000 0.916574 0.000000
0.000000 0.020304 0.000000
0.510721 0.036744 0.000000
0.706002 0.106021 0.000000
0.787386 0.199194 0.000000
0.784243 0.308892 0.000000
0.798709 0.409537 0.000000
0.770163 0.487969 0.000000
0.736892 0.550360 0.000000
0.695828 0.599603 0.000000
0.657722 0.636954 0.000000
0.616640 0.665765 0.000000
0.580729 0.691137 0.000000
0.548135 0.713001 0.000000
0.525992 0.740499 0.000000
0.512031 0.770163 0.000000
0.514527 0.806526 0.000000
0.530935 0.841816 0.000000
0.590678 0.877710 0.000000
0.673897 0.903996 0.000000
0.820960 0.921906 0.000000
1.000000 0.931442 0.000000
0.000000 0.023357 0.000000
0.483896 0.041124 0.000000
0.682044 0.107478 0.000000
0.761730 0.203552 0.000000
0.763286 0.305622 0.000000
0.770928 0.406297 0.000000
0.740499 0.474008 0.000000
0.703231 0.533545 0.000000
0.658799 0.574865 0.000000
0.617173 0.607969 0.000000
0.573081 0.632035 0.000000
0.531347 0.652932 0.000000
0.493082 0.673419 0.000000
0.466455 0.703231 0.000000
0.449640 0.736892 0.000000
0.447982 0.777984 0.000000
0.458347 0.821127 0.000000
0.510441 0.870347 0.000000
0.594789 0.908516 0.000000
0.771695 0.930656 0.000000
1.000000 0.943229 0.000000
0.000000 0.026720 0.000000
0.451376 0.045300 0.000000
0.654118 0.105195 0.000000
0.730711 0.199923 0.000000
0.742445 0.294752 0.000000
0.741784 0.390522 0.000000
0.713001 0.451865 0.000000
0.673419 0.506918 0.000000
0.626575 0.542483 0.000000
0.582907 0.571785 0.000000
0.537857 0.590311 0.000000
0.496821 0.608615 0.000000
0.457517 0.626575 0.000000
0.425135 0.658799 0.000000
0.400397 0.695828 0.000000
0.392962 0.745375 0.000000
0.397076 0.795662 0.000000
0.444438 0.856996 0.000000
0.522364 0.908152 0.000000
0.719869 0.936773 0.000000
1.000000 0.952047 0.000000
0.000000 0.030616 0.000000
0.412109 0.049220 0.000000
0.620079 0.099565 0.000000
0.693463 0.186523 0.000000
0.719587 0.275442 0.000000
0.714267 0.358485 0.000000
0.691137 0.419271 0.000000
0.652932 0.468653 0.000000
0.608615 0.503179 0.000000
0.563073 0.528904 0.000000
0.516383 0.545777 0.000000
0.471096 0.563073 0.000000
0.428215 0.582907 0.000000
0.392031 0.617173 0.000000
0.363046 0.657722 0.000000
0.350331 0.712599 0.000000
0.348993 0.771400 0.000000
0.393579 0.844909 0.000000
0.466899 0.907466 0.000000
0.672659 0.941856 0.000000
1.000000 0.958948 0.000000
0.000000 0.035283 0.000000
0.370918 0.053554 0.000000
0.580370 0.095029 0.000000
0.652999 0.171515 0.000000
0.690019 0.255805 0.000000
0.684301 0.323866 0.000000
0.665765 0.383360 0.000000
0.632035 0.426919 0.000000
0.590311 0.462143 0.000000
0.545777 0.483617 0.000000
0.500000 0.500000 0.000000
0.454223 0.516383 0.000000
0.409689 0.537857 0.000000
0.367965 0.573081 0.000000
0.334235 0.616640 0.000000
0.315699 0.676134 0.000000
0.309981 0.744195 0.000000
0.347001 0.828485 0.000000
0.419630 0.904971 0.000000
0.629082 0.946446 0.000000
1.000000 0.964717 0.000000
0.000000 0.041052 0.000000
0.327341 0.058144 0.000000
0.533101 0.092534 0.000000
0.606421 0.155091 0.000000
0.651007 0.228600 0.000000
0.649669 0.287401 0.000000
0.636954 0.342278 0.000000
0.607969 0.382827 0.000000
0.571785 0.417093 0.000000
0.528904 0.436927 0.000000
0.483617 0.454223 0.000000
0.436927 0.471096 0.000000
0.391385 0.496821 0.000000
0.347068 0.531347 0.000000
0.308863 0.580729 0.000000
0.285733 0.641515 0.000000
0.280413 0.724558 0.000000
0.306537 0.813477 0.000000
0.379921 0.900435 0.000000
0.587891 0.950780 0.000000
1.000000 0.969384 0.000000
0.000000 0.047953 0.000000
0.280131 0.063227 0.000000
0.477636 0.091848 0.000000
0.555562 0.143004 0.000000
0.602924 0.204338 0.000000
0.607038 0.254625 0.000000
0.599603 0.304172 0.000000
0.574865 0.341201 0.000000
0.542483 0.373425 0.000000
0.503179 0.391385 0.000000
0.462143 0.409689 0.000000
0.417093 0.428215 0.000000
0.373425 0.457517 0.000000
0.326581 0.493082 0.000000
0.286999 0.548135 0.000000
0.258216 0.609478 0.000000
0.257555 0.705248 0.000000
0.269289 0.800077 0.000000
0.345882 0.894805 0.000000
0.548624 0.954700 0.000000
1.000000 0.973280 0.000000
0.000000 0.056771 0.000000
0.228305 0.069344 0.000000
0.405211 0.091484 0.000000
0.489559 0.129653 0.000000
0.541653 0.178873 0.000000
0.552018 0.222016 0.000000
0.550360 0.263108 0.000000
0.533545 0.296769 0.000000
0.506918 0.326581 0.000000
0.468653 0.347068 0.000000
0.426919 0.367965 0.000000
0.382827 0.392031 0.000000
0.341201 0.425135 0.000000
0.296769 0.466455 0.000000
0.259501 0.525992 0.000000
0.229072 0.593703 0.000000
0.236714 0.694378 0.000000
0.238270 0.796448 0.000000
0.317956 0.892522 0.000000
0.516104 0.958876 0.000000
1.000000 0.976643 0.000000
0.000000 0.068558 0.000000
0.179040 0.078094 0.000000
0.326103 0.096004 0.000000
0.409322 0.122290 0.000000
0.469065 0.158184 0.000000
0.485473 0.193474 0.000000
0.487969 0.229837 0.000000
0.474008 0.259501 0.000000
0.451865 0.286999 0.000000
0.419271 0.308863 0.000000
0.383360 0.334235 0.000000
0.342278 0.363046 0.000000
0.304172 0.400397 0.000000
0.263108 0.449640 0.000000
0.229837 0.512031 0.000000
0.201291 0.590463 0.000000
0.215757 0.691108 0.000000
0.212614 0.800806 0.000000
0.293998 0.893979 0.000000
0.489279 0.963256 0.000000
1.000000 0.979696 0.000000
0.000000 0.083426 0.000000
0.137080 0.091291 0.000000
0.249846 0.104840 0.000000
0.321257 0.127018 0.000000
0.370931 0.150290 0.000000
0.396118 0.174684 0.000000
0.409537 0.201291 0.000000
0.406297 0.229072 0.000000
0.390522 0.258216 0.000000
0.358485 0.285733 0.000000
0.323866 0.315699 0.000000
0.287401 0.350331 0.000000
0.254625 0.392962 0.000000
0.222016 0.447982 0.000000
0.193474 0.514527 0.000000
0.174684 0.603882 0.000000
0.192400 0.696347 0.000000
0.192385 0.813581 0.000000
0.273150 0.900695 0.000000
0.467372 0.968103 0.000000
1.000000 0.982702 0.000000
0.000000 0.103508 0.000000
0.090553 0.110362 0.000000
0.174767 0.119008 0.000000
0.240710 0.139369 0.000000
0.285257 0.166913 0.000000
0.303653 0.192400 0.000000
0.308892 0.215757 0.000000
0.305622 0.236714 0.000000
0.294752 0.257555 0.000000
0.275442 0.280413 0.000000
0.255805 0.309981 0.000000
0.228600 0.348993 0.000000
0.204338 0.397076 0.000000
0.178873 0.458347 0.000000
0.158184 0.530935 0.000000
0.150290 0.629069 0.000000
0.166913 0.714743 0.000000
0.177708 0.833823 0.000000
0.254352 0.912921 0.000000
0.452050 0.973562 0.000000
1.000000 0.985754 0.000000
0.000000 0.138159 0.000000
0.059489 0.147185 0.000000
0.105035 0.157835 0.000000
0.138549 0.166836 0.000000
0.166177 0.177708 0.000000
0.186419 0.192385 0.000000
0.199194 0.212614 0.000000
0.203552 0.238270 0.000000
0.199923 0.269289 0.000000
[...]
POINT_DATA 2205 
VECTORS pos float 
0.000000 0.000000 0.000000
0.551042 0.000000 0.000000
0.814910 0.000000 0.000000
0.861841 0.000000 0.000000
0.896492 0.000000 0.000000
0.916574 0.000000 0.000000
0.931442 0.000000 0.000000
0.943229 0.000000 0.000000
0.952047 0.000000 0.000000
0.958948 0.000000 0.000000
0.964717 0.000000 0.000000
0.969384 0.000000 0.000000
0.973280 0.000000 0.000000
0.976643 0.000000 0.000000
0.979696 0.000000 0.000000
0.982702 0.000000 0.000000
0.985754 0.000000 0.000000
0.989042 0.000000 0.000000
0.992583 0.000000 0.000000
0.996259 0.000000 0.000000
1.000000 0.000000 0.000000
0.000000 0.003741 0.000000
0.548958 0.006341 0.000000
0.804266 0.027912 0.000000
0.852815 0.059489 0.000000
0.889638 0.090553 0.000000
0.908709 0.137080 0.000000
0.921906 0.179040 0.000000
0.930656 0.228305 0.000000
0.936773 0.280131 0.000000
0.941856 0.327341 0.000000
0.946446 0.370918 0.000000
0.950780 0.412109 0.000000
0.954700 0.451376 0.000000
0.958876 0.483896 0.000000
0.963256 0.510721 0.000000
0.968103 0.532628 0.000000
0.973562 0.547950 0.000000
0.980033 0.554467 0.000000
0.987101 0.548874 0.000000
0.993659 0.548958 0.000000
1.000000 0.551042 0.000000
0.000000 0.007417 0.000000
0.548874 0.012899 0.000000
0.786311 0.049777 0.000000
0.842165 0.105035 0.000000
0.880992 0.174767 0.000000
0.895160 0.249846 0.000000
0.903996 0.326103 0.000000
0.908516 0.405211 0.000000
0.908152 0.477636 0.000000
0.907466 0.533101 0.000000
0.904971 0.580370 0.000000
0.900435 0.620079 0.000000
0.894805 0.654118 0.000000
0.892522 0.682044 0.000000
0.893979 0.706002 0.000000
0.900695 0.726850 0.000000
0.912921 0.745648 0.000000
0.929929 0.766056 0.000000
0.950223 0.786311 0.000000
0.972088 0.804266 0.000000
1.000000 0.814910 0.000000
0.000000 0.010958 0.000000
0.554467 0.019967 0.000000
0.766056 0.070071 0.000000
0.833164 0.138549 0.000000
0.860631 0.240710 0.000000
0.872982 0.321257 0.000000
0.877710 0.409322 0.000000
0.870347 0.489559 0.000000
0.856996 0.555562 0.000000
0.844909 0.606421 0.000000
0.828485 0.652999 0.000000
0.813477 0.693463 0.000000
0.800077 0.730711 0.000000
0.796448 0.761730 0.000000
0.800806 0.787386 0.000000
0.813581 0.807615 0.000000
0.833823 0.822292 0.000000
0.861451 0.833164 0.000000
0.894965 0.842165 0.000000
0.940511 0.852815 0.000000
1.000000 0.861841 0.000000
0.000000 0.014246 0.000000
0.547950 0.026438 0.000000
0.745648 0.087079 0.000000
0.822292 0.166177 0.000000
0.833087 0.285257 0.000000
0.849710 0.370931 0.000000
0.841816 0.469065 0.000000
0.821127 0.541653 0.000000
0.795662 0.602924 0.000000
0.771400 0.651007 0.000000
0.744195 0.690019 0.000000
0.724558 0.719587 0.000000
0.705248 0.742445 0.000000
0.694378 0.763286 0.000000
0.691108 0.784243 0.000000
0.696347 0.807600 0.000000
0.714743 0.833087 0.000000
0.759290 0.860631 0.000000
0.825233 0.880992 0.000000
0.909447 0.889638 0.000000
1.000000 0.896492 0.000000
0.000000 0.017298 0.000000
0.532628 0.031897 0.000000
0.726850 0.099305 0.000000
0.807615 0.186419 0.000000
0.807600 0.303653 0.000000
0.825316 0.396118 0.000000
0.806526 0.485473 0.000000
0.777984 0.552018 0.000000
0.745375 0.607038 0.000000
0.712599 0.649669 0.000000
0.676134 0.684301 0.000000
0.641515 0.714267 0.000000
0.609478 0.741784 0.000000
0.593703 0.770928 0.000000
0.590463 0.798709 0.000000
0.603882 0.825316 0.000000
0.629069 0.849710 0.000000
0.678743 0.872982 0.000000
0.750154 0.895160 0.000000
0.862920 0.908709 0.000000
1.000000 0.916574 0.000000
0.000000 0.020304 0.000000
0.510721 0.036744 0.000000
0.706002 0.106021 0.000000
0.787386 0.199194 0.000000
0.784243 0.308892 0.000000
0.798709 0.409537 0.000000
0.770163 0.487969 0.000000
0.736892 0.550360 0.000000
0.695828 0.599603 0.000000
0.657722 0.636954 0.000000
0.616640 0.665765 0.000000
0.580729 0.691137 0.000000
0.548135 0.713001 0.000000
0.525992 0.740499 0.000000
0.512031 0.770163 0.000000
0.514527 0.806526 0.000000
0.530935 0.841816 0.000000
0.590678 0.877710 0.000000
0.673897 0.903996 0.000000
0.820960 0.921906 0.000000
1.000000 0.931442 0.000000
0.000000 0.023357 0.000000
0.483896 0.041124 0.000000
0.682044 0.107478 0.000000
0.761730 0.203552 0.000000
0.763286 0.305622 0.000000
0.770928 0.406297 0.000000
0.740499 0.474008 0.000000
0.703231 0.533545 0.000000
0.658799 0.574865 0.000000
0.617173 0.607969 0.000000
0.573081 0.632035 0.000000
0.531347 0.652932 0.000000
0.493082 0.673419 0.000000
0.466455 0.703231 0.000000
0.449640 0.736892 0.000000
0.447982 0.777984 0.000000
0.458347 0.821127 0.000000
0.510441 0.870347 0.000000
0.594789 0.908516 0.000000
0.771695 0.930656 0.000000
1.000000 0.943229 0.000000
0.000000 0.026720 0.000000
0.451376 0.045300 0.000000
0.654118 0.105195 0.000000
0.730711 0.199923 0.000000
0.742445 0.294752 0.000000
0.741784 0.390522 0.000000
0.713001 0.451865 0.000000
0.673419 0.506918 0.000000
0.626575 0.542483 0.000000
0.582907 0.571785 0.000000
0.537857 0.590311 0.000000
0.496821 0.608615 0.000000
0.457517 0.626575 0.000000
0.425135 0.658799 0.000000
0.400397 0.695828 0.000000
0.392962 0.745375 0.000000
0.397076 0.795662 0.000000
0.444438 0.856996 0.000000
0.522364 0.908152 0.000000
0.719869 0.936773 0.000000
1.000000 0.952047 0.000000
0.000000 0.030616 0.000000
0.412109 0.049220 0.000000
0.620079 0.099565 0.000000
0.693463 0.186523 0.000000
0.719587 0.275442 0.000000
0.714267 0.358485 0.000000
0.691137 0.419271 0.000000
0.652932 0.468653 0.000000
0.608615 0.503179 0.000000
0.563073 0.528904 0.000000
0.516383 0.545777 0.000000
0.471096 0.563073 0.000000
0.428215 0.582907 0.000000
0.392031 0.617173 0.000000
0.363046 0.657722 0.000000
0.350331 0.712599 0.000000
0.348993 0.771400 0.000000
0.393579 0.844909 0.000000
0.466899 0.907466 0.000000
0.672659 0.941856 0.000000
1.000000 0.958948 0.000000
0.000000 0.035283 0.000000
0.370918 0.053554 0.000000
0.580370 0.095029 0.000000
0.652999 0.171515 0.000000
0.690019 0.255805 0.000000
0.684301 0.323866 0.000000
0.665765 0.383360 0.000000
0.632035 0.426919 0.000000
0.590311 0.462143 0.000000
0.545777 0.483617 0.000000
0.500000 0.500000 0.000000
0.454223 0.516383 0.000000
0.409689 0.537857 0.000000
0.367965 0.573081 0.000000
0.334235 0.616640 0.000000
0.315699 0.676134 0.000000
0.309981 0.744195 0.000000
0.347001 0.828485 0.000000
0.419630 0.904971 0.000000
0.629082 0.946446 0.000000
1.000000 0.964717 0.000000
0.000000 0.041052 0.000000
0.327341 0.058144 0.000000
0.533101 0.092534 0.000000
0.606421 0.155091 0.000000
0.651007 0.228600 0.000000
0.649669 0.287401 0.000000
0.636954 0.342278 0.000000
0.607969 0.382827 0.000000
0.571785 0.417093 0.000000
0.528904 0.436927 0.000000
0.483617 0.454223 0.000000
0.436927 0.471096 0.000000
0.391385 0.496821 0.000000
0.347068 0.531347 0.000000
0.308863 0.580729 0.000000
0.285733 0.641515 0.000000
0.280413 0.724558 0.000000
0.306537 0.813477 0.000000
0.379921 0.900435 0.000000
0.587891 0.950780 0.000000
1.000000 0.969384 0.000000
0.000000 0.047953 0.000000
0.280131 0.063227 0.000000
0.477636 0.091848 0.000000
0.555562 0.143004 0.000000
0.602924 0.204338 0.000000
0.607038 0.254625 0.000000
0.599603 0.304172 0.000000
0.574865 0.341201 0.000000
0.542483 0.373425 0.000000
0.503179 0.391385 0.000000
0.462143 0.409689 0.000000
0.417093 0.428215 0.000000
0.373425 0.457517 0.000000
0.326581 0.493082 0.000000
0.286999 0.548135 0.000000
0.258216 0.609478 0.000000
0.257555 0.705248 0.000000
0.269289 0.800077 0.000000
0.345882 0.894805 0.000000
0.548624 0.954700 0.000000
1.000000 0.973280 0.000000
0.000000 0.056771 0.000000
0.228305 0.069344 0.000000
0.405211 0.091484 0.000000
0.489559 0.129653 0.000000
0.541653 0.178873 0.000000
0.552018 0.222016 0.000000
0.550360 0.263108 0.000000
0.533545 0.296769 0.000000
0.506918 0.326581 0.000000
0.468653 0.347068 0.000000
0.426919 0.367965 0.000000
0.382827 0.392031 0.000000
0.341201 0.425135 0.000000
0.296769 0.466455 0.000000
0.259501 0.525992 0.000000
0.229072 0.593703 0.000000
0.236714 0.694378 0.000000
0.238270 0.796448 0.000000
0.317956 0.892522 0.000000
0.516104 0.958876 0.000000
1.000000 0.976643 0.000000
0.000000 0.068558 0.000000
0.179040 0.078094 0.000000
0.326103 0.096004 0.000000
0.409322 0.122290 0.000000
0.469065 0.158184 0.000000
0.485473 0.193474 0.000000
0.487969 0.229837 0.000000
0.474008 0.259501 0.000000
0.451865 0.286999 0.000000
0.419271 0.308863 0.000000
0.383360 0.334235 0.000000
0.342278 0.363046 0.000000
0.304172 0.400397 0.000000
0.263108 0.449640 0.000000
0.229837 0.512031 0.000000
0.201291 0.590463 0.000000
0.215757 0.691108 0.000000
0.212614 0.800806 0.000000
0.293998 0.893979 0.000000
0.489279 0.963256 0.000000
1.000000 0.979696 0.000000
0.000000 0.083426 0.000000
0.137080 0.091291 0.000000
0.249846 0.104840 0.000000
0.321257 0.127018 0.000000
0.370931 0.150290 0.000000
0.396118 0.174684 0.000000
0.409537 0.201291 0.000000
0.406297 0.229072 0.000000
0.390522 0.258216 0.000000
0.358485 0.285733 0.000000
0.323866 0.315699 0.000000
0.287401 0.350331 0.000000
0.254625 0.392962 0.000000
0.222016 0.447982 0.000000
0.193474 0.514527 0.000000
0.174684 0.603882 0.000000
0.192400 0.696347 0.000000
0.192385 0.813581 0.000000
0.273150 0.900695 0.000000
0.467372 0.968103 0.000000
1.000000 0.982702 0.000000
0.000000 0.103508 0.000000
0.090553 0.110362 0.000000
0.174767 0.119008 0.000000
0.240710 0.139369 0.000000
0.285257 0.166913 0.000000
0.303653 0.192400 0.000000
0.308892 0.215757 0.000000
0.305622 0.236714 0.000000
0.294752 0.257555 0.000000
0.275442 0.280413 0.000000
0.255805 0.309981 0.000000
0.228600 0.348993 0.000000
0.204338 0.397076 0.000000
0.178873 0.458347 0.000000
0.158184 0.530935 0.000000
0.150290 0.629069 0.000000
0.166913 0.714743 0.000000
0.177708 0.833823 0.000000
0.254352 0.912921 0.000000
0.452050 0.973562 0.000000
1.000000 0.985754 0.000000
0.000000 0.138159 0.000000
0.059489 0.147185 0.000000
0.105035 0.157835 0.000000
0.138549 0.166836 0.000000
0.166177 0.177708 0.000000
0.186419 0.192385 0.000000
0.199194 0.212614 0.000000
0.203552 0.238270 0.000000
0.199923 0.269289 0.000000
0.186523 0.306537 0.000000
0.171515 0.347001 0.000000
0.155091 0.393579 0.000000
0.143004 0.444438 0.000000
0.129653 0.510441 0.000000
0.122290 0.590678 0.000000
0.127018 0.678743 0.000000
0.139369 0.759290 0.000000
0.166836 0.861451 0.000000
0.233944 0.929929 0.000000
0.445533 0.980033 0.000000
1.000000 0.989042 0.000000
0.000000 0.185090 0.000000
0.027912 0.195734 0.000000
0.049777 0.213689 0.000000
0.070071 0.233944 0.000000
0.087079 0.254352 0.000000
0.099305 0.273150 0.000000
0.106021 0.293998 0.000000
0.107478 0.317956 0.000000
0.105195 0.345882 0.000000
0.099565 0.379921 0.000000
0.095029 0.419630 0.000000
0.092534 0.466899 0.000000
0.091848 0.522364 0.000000
0.091484 0.594789 0.000000
0.096004 0.673897 0.000000
0.104840 0.750154 0.000000
0.119008 0.825233 0.000000
0.157835 0.894965 0.000000
0.213689 0.950223 0.000000
0.451126 0.987101 0.000000
1.000000 0.992583 0.000000
0.000000 0.448958 0.000000
0.006341 0.451042 0.000000
0.012899 0.451126 0.000000
0.019967 0.445533 0.000000
0.026438 0.452050 0.000000
0.031897 0.467372 0.000000
0.036744 0.489279 0.000000
0.041124 0.516104 0.000000
0.045300 0.548624 0.000000
0.049220 0.587891 0.000000
0.053554 0.629082 0.000000
0.058144 0.672659 0.000000
0.063227 0.719869 0.000000
0.069344 0.771695 0.000000
0.078094 0.820960 0.000000
0.091291 0.862920 0.000000
0.110362 0.909447 0.000000
0.147185 0.940511 0.000000
0.195734 0.972088 0.000000
0.451042 0.993659 0.000000
1.000000 0.996259 0.000000
0.000000 1.000000 0.000000
0.003741 1.000000 0.000000
0.007417 1.000000 0.000000
0.010958 1.000000 0.000000
0.014246 1.000000 0.000000
0.017298 1.000000 0.000000
0.020304 1.000000 0.000000
0.023357 1.000000 0.000000
0.026720 1.000000 0.000000
0.030616 1.000000 0.000000
0.035283 1.000000 0.000000
0.041052 1.000000 0.000000
0.047953 1.000000 0.000000
0.056771 1.000000 0.000000
0.068558 1.000000 0.000000
0.083426 1.000000 0.000000
0.103508 1.000000 0.000000
0.138159 1.000000 0.000000
0.185090 1.000000 0.000000
0.448958 1.000000 0.000000
1.000000 1.000000 0.000000
0.000000 0.000000 0.082500
0.551042 0.000000 0.082500
0.814910 0.000000 0.082500
0.861841 0.000000 0.082500
0.896492 0.000000 0.082500
0.916574 0.000000 0.082500
0.931442 0.000000 0.082500
0.943229 0.000000 0.082500
0.952047 0.000000 0.082500
0.958948 0.000000 0.082500
0.964717 0.000000 0.082500
0.969384 0.000000 0.082500
0.973280 0.000000 0.082500
0.976643 0.000000 0.082500
0.979696 0.000000 0.082500
0.982702 0.000000 0.082500
0.985754 0.000000 0.082500
0.989042 0.000000 0.082500
0.992583 0.000000 0.082500
0.996259 0.000000 0.082500
1.000000 0.000000 0.082500
0.000000 0.003741 0.082500
0.548958 0.006341 0.082500
0.804266 0.027912 0.082500
0.852815 0.059489 0.082500
0.889638 0.090553 0.082500
0.908709 0.137080 0.082500
0.921906 0.179040 0.082500
0.930656 0.228305 0.082500
0.936773 0.280131 0.082500
0.941856 0.327341 0.082500
0.946446 0.370918 0.082500
0.950780 0.412109 0.082500
0.954700 0.451376 0.082500
0.958876 0.483896 0.082500
0.963256 0.510721 0.082500
0.968103 0.532628 0.082500
0.973562 0.547950 0.082500
0.980033 0.554467 0.082500
0.987101 0.548874 0.082500
0.993659 0.548958 0.082500
1.000000 0.551042 0.082500
0.000000 0.007417 0.082500
0.548874 0.012899 0.082500
0.786311 0.049777 0.082500
0.842165 0.105035 0.082500
0.880992 0.174767 0.082500
0.895160 0.249846 0.082500
0.903996 0.326103 0.082500
0.908516 0.405211 0.082500
0.908152 0.477636 0.082500
0.907466 0.533101 0.082500
0.904971 0.580370 0.082500
0.900435 0.620079 0.082500
0.894805 0.654118 0.082500
0.892522 0.682044 0.082500
0.893979 0.706002 0.082500
0.900695 0.726850 0.082500
0.912921 0.745648 0.082500
0.929929 0.766056 0.082500
0.950223 0.786311 0.082500
0.972088 0.804266 0.082500
1.000000 0.814910 0.082500
0.000000 0.010958 0.082500
0.554467 0.019967 0.082500
0.766056 0.070071 0.082500
0.833164 0.138549 0.082500
0.860631 0.240710 0.082500
0.872982 0.321257 0.082500
0.877710 0.409322 0.082500
0.870347 0.489559 0.082500
0.856996 0.555562 0.082500
0.844909 0.606421 0.082500
0.828485 0.652999 0.082500
0.813477 0.693463 0.082500
0.800077 0.730711 0.082500
0.796448 0.761730 0.082500
0.800806 0.787386 0.082500
0.813581 0.807615 0.082500
0.833823 0.822292 0.082500
0.861451 0.833164 0.082500
0.894965 0.842165 0.082500
0.940511 0.852815 0.082500
1.000000 0.861841 0.082500
0.000000 0.014246 0.082500
0.547950 0.026438 0.082500
0.745648 0.087079 0.082500
0.822292 0.166177 0.082500
0.833087 0.285257 0.082500
0.849710 0.370931 0.082500
0.841816 0.469065 0.082500
0.821127 0.541653 0.082500
0.795662 0.602924 0.082500
0.771400 0.651007 0.082500
0.744195 0.690019 0.082500
0.724558 0.719587 0.082500
0.705248 0.742445 0.082500
0.694378 0.763286 0.082500
0.691108 0.784243 0.082500
0.696347 0.807600 0.082500
0.714743 0.833087 0.082500
0.759290 0.860631 0.082500
0.825233 0.880992 0.082500
0.909447 0.889638 0.082500
1.000000 0.896492 0.082500
0.000000 0.017298 0.082500
0.532628 0.031897 0.082500
0.726850 0.099305 0.082500
0.807615 0.186419 0.082500
0.807600 0.303653 0.082500
0.825316 0.396118 0.082500
0.806526 0.485473 0.082500
0.777984 0.552018 0.082500
0.745375 0.607038 0.082500
0.712599 0.649669 0.082500
0.676134 0.684301 0.082500
0.641515 0.714267 0.082500
0.609478 0.741784 0.082500
0.593703 0.770928 0.082500
0.590463 0.798709 0.082500
0.603882 0.825316 0.082500
0.629069 0.849710 0.082500
0.678743 0.872982 0.082500
0.750154 0.895160 0.082500
0.862920 0.908709 0.082500
1.000000 0.916574 0.082500
0.000000 0.020304 0.082500
0.510721 0.036744 0.082500
0.706002 0.106021 0.082500
0.787386 0.199194 0.082500
0.784243 0.308892 0.082500
0.798709 0.409537 0.082500
0.770163 0.487969 0.082500
0.736892 0.550360 0.082500
0.695828 0.599603 0.082500
0.657722 0.636954 0.082500
0.616640 0.665765 0.082500
0.580729 0.691137 0.082500
0.548135 0.713001 0.082500
0.525992 0.740499 0.082500
0.512031 0.770163 0.082500
0.514527 0.806526 0.082500
0.530935 0.841816 0.082500
0.590678 0.877710 0.082500
0.673897 0.903996 0.082500
0.820960 0.921906 0.082500
1.000000 0.931442 0.082500
0.000000 0.023357 0.082500
0.483896 0.041124 0.082500
0.682044 0.107478 0.082500
0.761730 0.203552 0.082500
0.763286 0.305622 0.082500
0.770928 0.406297 0.082500
0.740499 0.474008 0.082500
0.703231 0.533545 0.082500
0.658799 0.574865 0.082500
0.617173 0.607969 0.082500
0.573081 0.632035 0.082500
0.531347 0.652932 0.082500
0.493082 0.673419 0.082500
0.466455 0.703231 0.082500
0.449640 0.736892 0.082500
0.447982 0.777984 0.082500
0.458347 0.821127 0.082500
0.510441 0.870347 0.082500
0.594789 0.908516 0.082500
0.771695 0.930656 0.082500
1.000000 0.943229 0.082500
0.000000 0.026720 0.082500
0.451376 0.045300 0.082500
0.654118 0.105195 0.082500
0.730711 0.199923 0.082500
0.742445 0.294752 0.082500
0.741784 0.390522 0.082500
0.713001 0.451865 0.082500
0.673419 0.506918 0.082500
0.626575 0.542483 0.082500
0.582907 0.571785 0.082500
0.537857 0.590311 0.082500
0.496821 0.608615 0.082500
0.457517 0.626575 0.082500
0.425135 0.658799 0.082500
0.400397 0.695828 0.082500
0.392962 0.745375 0.082500
0.397076 0.795662 0.082500
0.444438 0.856996 0.082500
0.522364 0.908152 0.082500
0.719869 0.936773 0.082500
1.000000 0.952047 0.082500
0.000000 0.030616 0.082500
0.412109 0.049220 0.082500
0.620079 0.099565 0.082500
0.693463 0.186523 0.082500
0.719587 0.275442 0.082500
0.714267 0.358485 0.082500
0.691137 0.419271 0.082500
0.652932 0.468653 0.082500
0.608615 0.503179 0.082500
0.563073 0.528904 0.082500
0.516383 0.545777 0.082500
0.471096 0.563073 0.082500
0.428215 0.582907 0.082500
0.392031 0.617173 0.082500
0.363046 0.657722 0.082500
0.350331 0.712599 0.082500
0.348993 0.771400 0.082500
0.393579 0.844909 0.082500
0.466899 0.907466 0.082500
0.672659 0.941856 0.082500
1.000000 0.958948 0.082500
0.000000 0.035283 0.082500
0.370918 0.053554 0.082500
0.580370 0.095029 0.082500
0.652999 0.171515 0.082500
0.690019 0.255805 0.082500
0.684301 0.323866 0.082500
0.665765 0.383360 0.082500
0.632035 0.426919 0.082500
0.590311 0.462143 0.082500
0.545777 0.483617 0.082500
0.500000 0.500000 0.082500
0.454223 0.516383 0.082500
0.409689 0.537857 0.082500
0.367965 0.573081 0.082500
0.334235 0.616640 0.082500
0.315699 0.676134 0.082500
0.309981 0.744195 0.082500
0.347001 0.828485 0.082500
0.419630 0.904971 0.082500
0.629082 0.946446 0.082500
1.000000 0.964717 0.082500
0.000000 0.041052 0.082500
0.327341 0.058144 0.082500
0.533101 0.092534 0.082500
0.606421 0.155091 0.082500
0.651007 0.228600 0.082500
0.649669 0.287401 0.082500
0.636954 0.342278 0.082500
0.607969 0.382827 0.082500
0.571785 0.417093 0.082500
0.528904 0.436927 0.082500
0.483617 0.454223 0.082500
0.436927 0.471096 0.082500
0.391385 0.496821 0.082500
0.347068 0.531347 0.082500
0.308863 0.580729 0.082500
0.285733 0.641515 0.082500
0.280413 0.724558 0.082500
0.306537 0.813477 0.082500
0.379921 0.900435 0.082500
0.587891 0.950780 0.082500
1.000000 0.969384 0.082500
0.000000 0.047953 0.082500
0.280131 0.063227 0.082500
0.477636 0.091848 0.082500
0.555562 0.143004 0.082500
0.602924 0.204338 0.082500
0.607038 0.254625 0.082500
0.599603 0.304172 0.082500
0.574865 0.341201 0.082500
0.542483 0.373425 0.082500
0.503179 0.391385 0.082500
0.462143 0.409689 0.082500
0.417093 0.428215 0.082500
0.373425 0.457517 0.082500
0.326581 0.493082 0.082500
0.286999 0.548135 0.082500
0.258216 0.609478 0.082500
0.257555 0.705248 0.082500
0.269289 0.800077 0.082500
0.345882 0.894805 0.082500
0.548624 0.954700 0.082500
1.000000 0.973280 0.082500
0.000000 0.056771 0.082500
0.228305 0.069344 0.082500
0.405211 0.091484 0.082500
0.489559 0.129653 0.082500
0.541653 0.178873 0.082500
0.552018 0.222016 0.082500
0.550360 0.263108 0.082500
0.533545 0.296769 0.082500
0.506918 0.326581 0.082500
0.468653 0.347068 0.082500
0.426919 0.367965 0.082500
0.382827 0.392031 0.082500
0.341201 0.425135 0.082500
0.296769 0.466455 0.082500
0.259501 0.525992 0.082500
0.229072 0.593703 0.082500
0.236714 0.694378 0.082500
0.238270 0.796448 0.082500
0.317956 0.892522 0.082500
0.516104 0.958876 0.082500
1.000000 0.976643 0.082500
0.000000 0.068558 0.082500
0.179040 0.078094 0.082500
0.326103 0.096004 0.082500
0.409322 0.122290 0.082500