# vtk DataFile Version 2.0
Mesh for Fierro
ASCII 
DATASET UNSTRUCTURED_GRID

POINTS 2205 float
0.000000 0.000000 0.000000
0.389901 0.000000 0.000000
0.615591 0.000000 0.000000
0.723066 0.000000 0.000000
0.789143 0.000000 0.000000
0.828912 0.000000 0.000000
0.859750 0.000000 0.000000
0.882556 0.000000 0.000000
0.900603 0.000000 0.000000
0.915009 0.000000 0.000000
0.927158 0.000000 0.000000
0.937837 0.000000 0.000000
0.947022 0.000000 0.000000
0.955188 0.000000 0.000000
0.962289 0.000000 0.000000
0.969078 0.000000 0.000000
0.975503 0.000000 0.000000
0.981787 0.000000 0.000000
0.987890 0.000000 0.000000
0.994001 0.000000 0.000000
1.000000 0.000000 0.000000
0.000000 0.005999 0.000000
0.387268 0.007817 0.000000
0.612227 0.016913 0.000000
0.719340 0.029045 0.000000
0.784751 0.050496 0.000000
0.826179 0.071724 0.000000
0.857452 0.095058 0.000000
0.879040 0.124241 0.000000
0.895776 0.155283 0.000000
0.909202 0.185637 0.000000
0.920528 0.214812 0.000000
0.930418 0.244126 0.000000
0.938990 0.273651 0.000000
0.946890 0.299807 0.000000
0.954353 0.322199 0.000000
0.961826 0.341884 0.000000
0.969289 0.357246 0.000000
0.976853 0.369973 0.000000
0.984421 0.380141 0.000000
0.992183 0.387268 0.000000
1.000000 0.389901 0.000000
0.000000 0.012110 0.000000
0.380141 0.015579 0.000000
0.604240 0.032986 0.000000
0.712410 0.056578 0.000000
0.775962 0.096744 0.000000
0.818519 0.135046 0.000000
0.847439 0.182961 0.000000
0.865889 0.234527 0.000000
0.878944 0.287692 0.000000
0.888637 0.336349 0.000000
0.896247 0.382516 0.000000
0.902323 0.426209 0.000000
0.907088 0.467219 0.000000
0.912652 0.502189 0.000000
0.919589 0.531556 0.000000
0.928470 0.556655 0.000000
0.939441 0.576342 0.000000
0.952441 0.592334 0.000000
0.967014 0.604240 0.000000
0.983087 0.612227 0.000000
1.000000 0.615591 0.000000
0.000000 0.018213 0.000000
0.369973 0.023147 0.000000
0.592334 0.047559 0.000000
0.699695 0.081037 0.000000
0.759457 0.134037 0.000000
0.801575 0.184901 0.000000
0.824805 0.248184 0.000000
0.838729 0.310203 0.000000
0.844783 0.374295 0.000000
0.849391 0.428565 0.000000
0.851062 0.480486 0.000000
0.852169 0.527289 0.000000
0.853229 0.570215 0.000000
0.858081 0.606769 0.000000
0.866685 0.637612 0.000000
0.879668 0.663512 0.000000
0.896622 0.684231 0.000000
0.918963 0.699695 0.000000
0.943422 0.712410 0.000000
0.970955 0.719340 0.000000
1.000000 0.723066 0.000000
0.000000 0.024497 0.000000
0.357246 0.030711 0.000000
0.576342 0.060559 0.000000
0.684231 0.103378 0.000000
0.741796 0.167344 0.000000
0.781655 0.228676 0.000000
0.796803 0.304087 0.000000
0.805592 0.370937 0.000000
0.802928 0.440057 0.000000
0.802102 0.495397 0.000000
0.796523 0.547860 0.000000
0.792187 0.592679 0.000000
0.788244 0.631694 0.000000
0.790554 0.664569 0.000000
0.797824 0.693525 0.000000
0.812111 0.718929 0.000000
0.832656 0.741796 0.000000
0.865963 0.759457 0.000000
0.903256 0.775962 0.000000
0.949504 0.784751 0.000000
1.000000 0.789143 0.000000
0.000000 0.030922 0.000000
0.341884 0.038174 0.000000
0.556655 0.071530 0.000000
0.663512 0.120332 0.000000
0.718929 0.187889 0.000000
0.756009 0.255764 0.000000
0.764614 0.330644 0.000000
0.768960 0.398735 0.000000
0.760060 0.464352 0.000000
0.753718 0.519289 0.000000
0.742128 0.569631 0.000000
0.730951 0.614201 0.000000
0.720747 0.654638 0.000000
0.719297 0.692276 0.000000
0.726590 0.726066 0.000000
0.744236 0.756009 0.000000
0.771324 0.781655 0.000000
0.815099 0.801575 0.000000
0.864954 0.818519 0.000000
0.928276 0.826179 0.000000
1.000000 0.828912 0.000000
0.000000 0.037711 0.000000
0.322199 0.045647 0.000000
0.531556 0.080411 0.000000
0.637612 0.133315 0.000000
0.693525 0.202176 0.000000
0.726066 0.273410 0.000000
0.730198 0.346307 0.000000
0.729689 0.414203 0.000000
0.715432 0.476307 0.000000
0.703940 0.529600 0.000000
0.686360 0.576913 0.000000
0.670283 0.618939 0.000000
0.655483 0.657147 0.000000
0.650343 0.694596 0.000000
0.653693 0.730198 0.000000
0.669356 0.764614 0.000000
0.695913 0.796803 0.000000
0.751816 0.824805 0.000000
0.817039 0.847439 0.000000
0.904942 0.857452 0.000000
1.000000 0.859750 0.000000
0.000000 0.044812 0.000000
0.299807 0.053110 0.000000
0.502189 0.087348 0.000000
0.606769 0.141919 0.000000
0.664569 0.209446 0.000000
0.692276 0.280703 0.000000
0.694596 0.349657 0.000000
0.689609 0.415488 0.000000
0.672259 0.473588 0.000000
0.655748 0.524542 0.000000
0.633553 0.568856 0.000000
0.612583 0.609870 0.000000
0.593065 0.648574 0.000000
0.584512 0.689609 0.000000
0.585797 0.729689 0.000000
0.601265 0.768960 0.000000
0.629063 0.805592 0.000000
0.689797 0.838729 0.000000
0.765473 0.865889 0.000000
0.875759 0.879040 0.000000
1.000000 0.882556 0.000000
0.000000 0.052978 0.000000
0.273651 0.061010 0.000000
0.467219 0.092912 0.000000
0.570215 0.146771 0.000000
0.631694 0.211756 0.000000
0.654638 0.279253 0.000000
0.657147 0.344517 0.000000
0.648574 0.406935 0.000000
0.629342 0.462221 0.000000
0.608439 0.510365 0.000000
0.582740 0.551862 0.000000
0.559383 0.591283 0.000000
0.537779 0.629342 0.000000
0.526412 0.672259 0.000000
0.523693 0.715432 0.000000
0.535648 0.760060 0.000000
0.559943 0.802928 0.000000
0.625705 0.844783 0.000000
0.712308 0.878944 0.000000
0.844717 0.895776 0.000000
1.000000 0.900603 0.000000
0.000000 0.062163 0.000000
0.244126 0.069582 0.000000
0.426209 0.097677 0.000000
0.527289 0.147831 0.000000
0.592679 0.207813 0.000000
0.614201 0.269049 0.000000
0.618939 0.329717 0.000000
0.609870 0.387417 0.000000
0.591283 0.440617 0.000000
0.567722 0.486429 0.000000
0.540118 0.527364 0.000000
0.513571 0.567722 0.000000
0.489635 0.608439 0.000000
0.475458 0.655748 0.000000
0.470400 0.703940 0.000000
0.480711 0.753718 0.000000
0.504603 0.802102 0.000000
0.571435 0.849391 0.000000
0.663651 0.888637 0.000000
0.814363 0.909202 0.000000
1.000000 0.915009 0.000000
0.000000 0.072842 0.000000
0.214812 0.079472 0.000000
0.382516 0.103753 0.000000
0.480486 0.148938 0.000000
0.547860 0.203477 0.000000
0.569631 0.257872 0.000000
0.576913 0.313640 0.000000
0.568856 0.366447 0.000000
0.551862 0.417260 0.000000
0.527364 0.459882 0.000000
0.500000 0.500000 0.000000
0.472636 0.540118 0.000000
0.448138 0.582740 0.000000
0.431144 0.633553 0.000000
0.423087 0.686360 0.000000
0.430369 0.742128 0.000000
0.452140 0.796523 0.000000
0.519514 0.851062 0.000000
0.617484 0.896247 0.000000
0.785188 0.920528 0.000000
1.000000 0.927158 0.000000
0.000000 0.084991 0.000000
0.185637 0.090798 0.000000
0.336349 0.111363 0.000000
0.428565 0.150609 0.000000
0.495397 0.197898 0.000000
0.519289 0.246282 0.000000
0.529600 0.296060 0.000000
0.524542 0.344252 0.000000
0.510365 0.391561 0.000000
0.486429 0.432278 0.000000
0.459882 0.472636 0.000000
0.432278 0.513571 0.000000
0.408717 0.559383 0.000000
0.390130 0.612583 0.000000
0.381061 0.670283 0.000000
0.385799 0.730951 0.000000
0.407321 0.792187 0.000000
0.472711 0.852169 0.000000
0.573791 0.902323 0.000000
0.755874 0.930418 0.000000
1.000000 0.937837 0.000000
0.000000 0.099397 0.000000
0.155283 0.104224 0.000000
0.287692 0.121056 0.000000
0.374295 0.155217 0.000000
0.440057 0.197072 0.000000
0.464352 0.239940 0.000000
0.476307 0.284568 0.000000
0.473588 0.327741 0.000000
0.462221 0.370658 0.000000
0.440617 0.408717 0.000000
0.417260 0.448138 0.000000
0.391561 0.489635 0.000000
0.370658 0.537779 0.000000
0.351426 0.593065 0.000000
0.342853 0.655483 0.000000
0.345362 0.720747 0.000000
0.368306 0.788244 0.000000
0.429785 0.853229 0.000000
0.532781 0.907088 0.000000
0.726349 0.938990 0.000000
1.000000 0.947022 0.000000
0.000000 0.117444 0.000000
0.124241 0.120960 0.000000
0.234527 0.134111 0.000000
0.310203 0.161271 0.000000
0.370937 0.194408 0.000000
0.398735 0.231040 0.000000
0.414203 0.270311 0.000000
0.415488 0.310391 0.000000
0.406935 0.351426 0.000000
0.387417 0.390130 0.000000
0.366447 0.431144 0.000000
0.344252 0.475458 0.000000
0.327741 0.526412 0.000000
0.310391 0.584512 0.000000
0.305404 0.650343 0.000000
0.307724 0.719297 0.000000
0.335431 0.790554 0.000000
0.393231 0.858081 0.000000
0.497811 0.912652 0.000000
0.700193 0.946890 0.000000
1.000000 0.955188 0.000000
0.000000 0.140250 0.000000
0.095058 0.142548 0.000000
0.182961 0.152561 0.000000
0.248184 0.175195 0.000000
0.304087 0.203197 0.000000
0.330644 0.235386 0.000000
0.346307 0.269802 0.000000
0.349657 0.305404 0.000000
0.344517 0.342853 0.000000
0.329717 0.381061 0.000000
0.313640 0.423087 0.000000
0.296060 0.470400 0.000000
0.284568 0.523693 0.000000
0.270311 0.585797 0.000000
0.269802 0.653693 0.000000
0.273934 0.726590 0.000000
0.306475 0.797824 0.000000
0.362388 0.866685 0.000000
0.468444 0.919589 0.000000
0.677801 0.954353 0.000000
1.000000 0.962289 0.000000
0.000000 0.171088 0.000000
0.071724 0.173821 0.000000
0.135046 0.181481 0.000000
0.184901 0.198425 0.000000
0.228676 0.218345 0.000000
0.255764 0.243991 0.000000
0.273410 0.273934 0.000000
0.280703 0.307724 0.000000
0.279253 0.345362 0.000000
0.269049 0.385799 0.000000
0.257872 0.430369 0.000000
0.246282 0.480711 0.000000
0.239940 0.535648 0.000000
0.231040 0.601265 0.000000
0.235386 0.669356 0.000000
0.243991 0.744236 0.000000
0.281071 0.812111 0.000000
0.336488 0.879668 0.000000
0.443345 0.928470 0.000000
0.658116 0.961826 0.000000
1.000000 0.969078 0.000000
0.000000 0.210857 0.000000
0.050496 0.215249 0.000000
0.096744 0.224038 0.000000
0.134037 0.240543 0.000000
0.167344 0.258204 0.000000
0.187889 0.281071 0.000000
0.202176 0.306475 0.000000
0.209446 0.335431 0.000000
0.211756 0.368306 0.000000
0.207813 0.407321 0.000000
0.203477 0.452140 0.000000
0.197898 0.504603 0.000000
0.197072 0.559943 0.000000
0.194408 0.629063 0.000000
0.203197 0.695913 0.000000
0.218345 0.771324 0.000000
0.258204 0.832656 0.000000
0.315769 0.896622 0.000000
0.423658 0.939441 0.000000
0.642754 0.969289 0.000000
1.000000 0.975503 0.000000
0.000000 0.276934 0.000000
0.029045 0.280660 0.000000
0.056578 0.287590 0.000000
0.081037 0.300305 0.000000
0.103378 0.315769 0.000000
0.120332 0.336488 0.000000
0.133315 0.362388 0.000000
0.141919 0.393231 0.000000
0.146771 0.429785 0.000000
[...]
POINT_DATA 2205 
VECTORS pos float 
0.000000 0.000000 0.000000
0.389901 0.000000 0.000000
0.615591 0.000000 0.000000
0.723066 0.000000 0.000000
0.789143 0.000000 0.000000
0.828912 0.000000 0.000000
0.859750 0.000000 0.000000
0.882556 0.000000 0.000000
0.900603 0.000000 0.000000
0.915009 0.000000 0.000000
0.927158 0.000000 0.000000
0.937837 0.000000 0.000000
0.947022 0.000000 0.000000
0.955188 0.000000 0.000000
0.962289 0.000000 0.000000
0.969078 0.000000 0.000000
0.975503 0.000000 0.000000
0.981787 0.000000 0.000000
0.987890 0.000000 0.000000
0.994001 0.000000 0.000000
1.000000 0.000000 0.000000
0.000000 0.005999 0.000000
0.387268 0.007817 0.000000
0.612227 0.016913 0.000000
0.719340 0.029045 0.000000
0.784751 0.050496 0.000000
0.826179 0.071724 0.000000
0.857452 0.095058 0.000000
0.879040 0.124241 0.000000
0.895776 0.155283 0.000000
0.909202 0.185637 0.000000
0.920528 0.214812 0.000000
0.930418 0.244126 0.000000
0.938990 0.273651 0.000000
0.946890 0.299807 0.000000
0.954353 0.322199 0.000000
0.961826 0.341884 0.000000
0.969289 0.357246 0.000000
0.976853 0.369973 0.000000
0.984421 0.380141 0.000000
0.992183 0.387268 0.000000
1.000000 0.389901 0.000000
0.000000 0.012110 0.000000
0.380141 0.015579 0.000000
0.604240 0.032986 0.000000
0.712410 0.056578 0.000000
0.775962 0.096744 0.000000
0.818519 0.135046 0.000000
0.847439 0.182961 0.000000
0.865889 0.234527 0.000000
0.878944 0.287692 0.000000
0.888637 0.336349 0.000000
0.896247 0.382516 0.000000
0.902323 0.426209 0.000000
0.907088 0.467219 0.000000
0.912652 0.502189 0.000000
0.919589 0.531556 0.000000
0.928470 0.556655 0.000000
0.939441 0.576342 0.000000
0.952441 0.592334 0.000000
0.967014 0.604240 0.000000
0.983087 0.612227 0.000000
1.000000 0.615591 0.000000
0.000000 0.018213 0.000000
0.369973 0.023147 0.000000
0.592334 0.047559 0.000000
0.699695 0.081037 0.000000
0.759457 0.134037 0.000000
0.801575 0.184901 0.000000
0.824805 0.248184 0.000000
0.838729 0.310203 0.000000
0.844783 0.374295 0.000000
0.849391 0.428565 0.000000
0.851062 0.480486 0.000000
0.852169 0.527289 0.000000
0.853229 0.570215 0.000000
0.858081 0.606769 0.000000
0.866685 0.637612 0.000000
0.879668 0.663512 0.000000
0.896622 0.684231 0.000000
0.918963 0.699695 0.000000
0.943422 0.712410 0.000000
0.970955 0.719340 0.000000
1.000000 0.723066 0.000000
0.000000 0.024497 0.000000
0.357246 0.030711 0.000000
0.576342 0.060559 0.000000
0.684231 0.103378 0.000000
0.741796 0.167344 0.000000
0.781655 0.228676 0.000000
0.796803 0.304087 0.000000
0.805592 0.370937 0.000000
0.802928 0.440057 0.000000
0.802102 0.495397 0.000000
0.796523 0.547860 0.000000
0.792187 0.592679 0.000000
0.788244 0.631694 0.000000
0.790554 0.664569 0.000000
0.797824 0.693525 0.000000
0.812111 0.718929 0.000000
0.832656 0.741796 0.000000
0.865963 0.759457 0.000000
0.903256 0.775962 0.000000
0.949504 0.784751 0.000000
1.000000 0.789143 0.000000
0.000000 0.030922 0.000000
0.341884 0.038174 0.000000
0.556655 0.071530 0.000000
0.663512 0.120332 0.000000
0.718929 0.187889 0.000000
0.756009 0.255764 0.000000
0.764614 0.330644 0.000000
0.768960 0.398735 0.000000
0.760060 0.464352 0.000000
0.753718 0.519289 0.000000
0.742128 0.569631 0.000000
0.730951 0.614201 0.000000
0.720747 0.654638 0.000000
0.719297 0.692276 0.000000
0.726590 0.726066 0.000000
0.744236 0.756009 0.000000
0.771324 0.781655 0.000000
0.815099 0.801575 0.000000
0.864954 0.818519 0.000000
0.928276 0.826179 0.000000
1.000000 0.828912 0.000000
0.000000 0.037711 0.000000
0.322199 0.045647 0.000000
0.531556 0.080411 0.000000
0.637612 0.133315 0.000000
0.693525 0.202176 0.000000
0.726066 0.273410 0.000000
0.730198 0.346307 0.000000
0.729689 0.414203 0.000000
0.715432 0.476307 0.000000
0.703940 0.529600 0.000000
0.686360 0.576913 0.000000
0.670283 0.618939 0.000000
0.655483 0.657147 0.000000
0.650343 0.694596 0.000000
0.653693 0.730198 0.000000
0.669356 0.764614 0.000000
0.695913 0.796803 0.000000
0.751816 0.824805 0.000000
0.817039 0.847439 0.000000
0.904942 0.857452 0.000000
1.000000 0.859750 0.000000
0.000000 0.044812 0.000000
0.299807 0.053110 0.000000
0.502189 0.087348 0.000000
0.606769 0.141919 0.000000
0.664569 0.209446 0.000000
0.692276 0.280703 0.000000
0.694596 0.349657 0.000000
0.689609 0.415488 0.000000
0.672259 0.473588 0.000000
0.655748 0.524542 0.000000
0.633553 0.568856 0.000000
0.612583 0.609870 0.000000
0.593065 0.648574 0.000000
0.584512 0.689609 0.000000
0.585797 0.729689 0.000000
0.601265 0.768960 0.000000
0.629063 0.805592 0.000000
0.689797 0.838729 0.000000
0.765473 0.865889 0.000000
0.875759 0.879040 0.000000
1.000000 0.882556 0.000000
0.000000 0.052978 0.000000
0.273651 0.061010 0.000000
0.467219 0.092912 0.000000
0.570215 0.146771 0.000000
0.631694 0.211756 0.000000
0.654638 0.279253 0.000000
0.657147 0.344517 0.000000
0.648574 0.406935 0.000000
0.629342 0.462221 0.000000
0.608439 0.510365 0.000000
0.582740 0.551862 0.000000
0.559383 0.591283 0.000000
0.537779 0.629342 0.000000
0.526412 0.672259 0.000000
0.523693 0.715432 0.000000
0.535648 0.760060 0.000000
0.559943 0.802928 0.000000
0.625705 0.844783 0.000000
0.712308 0.878944 0.000000
0.844717 0.895776 0.000000
1.000000 0.900603 0.000000
0.000000 0.062163 0.000000
0.244126 0.069582 0.000000
0.426209 0.097677 0.000000
0.527289 0.147831 0.000000
0.592679 0.207813 0.000000
0.614201 0.269049 0.000000
0.618939 0.329717 0.000000
0.609870 0.387417 0.000000
0.591283 0.440617 0.000000
0.567722 0.486429 0.000000
0.540118 0.527364 0.000000
0.513571 0.567722 0.000000
0.489635 0.608439 0.000000
0.475458 0.655748 0.000000
0.470400 0.703940 0.000000
0.480711 0.753718 0.000000
0.504603 0.802102 0.000000
0.571435 0.849391 0.000000
0.663651 0.888637 0.000000
0.814363 0.909202 0.000000
1.000000 0.915009 0.000000
0.000000 0.072842 0.000000
0.214812 0.079472 0.000000
0.382516 0.103753 0.000000
0.480486 0.148938 0.000000
0.547860 0.203477 0.000000
0.569631 0.257872 0.000000
0.576913 0.313640 0.000000
0.568856 0.366447 0.000000
0.551862 0.417260 0.000000
0.527364 0.459882 0.000000
0.500000 0.500000 0.000000
0.472636 0.540118 0.000000
0.448138 0.582740 0.000000
0.431144 0.633553 0.000000
0.423087 0.686360 0.000000
0.430369 0.742128 0.000000
0.452140 0.796523 0.000000
0.519514 0.851062 0.000000
0.617484 0.896247 0.000000
0.785188 0.920528 0.000000
1.000000 0.927158 0.000000
0.000000 0.084991 0.000000
0.185637 0.090798 0.000000
0.336349 0.111363 0.000000
0.428565 0.150609 0.000000
0.495397 0.197898 0.000000
0.519289 0.246282 0.000000
0.529600 0.296060 0.000000
0.524542 0.344252 0.000000
0.510365 0.391561 0.000000
0.486429 0.432278 0.000000
0.459882 0.472636 0.000000
0.432278 0.513571 0.000000
0.408717 0.559383 0.000000
0.390130 0.612583 0.000000
0.381061 0.670283 0.000000
0.385799 0.730951 0.000000
0.407321 0.792187 0.000000
0.472711 0.852169 0.000000
0.573791 0.902323 0.000000
0.755874 0.930418 0.000000
1.000000 0.937837 0.000000
0.000000 0.099397 0.000000
0.155283 0.104224 0.000000
0.287692 0.121056 0.000000
0.374295 0.155217 0.000000
0.440057 0.197072 0.000000
0.464352 0.239940 0.000000
0.476307 0.284568 0.000000
0.473588 0.327741 0.000000
0.462221 0.370658 0.000000
0.440617 0.408717 0.000000
0.417260 0.448138 0.000000
0.391561 0.489635 0.000000
0.370658 0.537779 0.000000
0.351426 0.593065 0.000000
0.342853 0.655483 0.000000
0.345362 0.720747 0.000000
0.368306 0.788244 0.000000
0.429785 0.853229 0.000000
0.532781 0.907088 0.000000
0.726349 0.938990 0.000000
1.000000 0.947022 0.000000
0.000000 0.117444 0.000000
0.124241 0.120960 0.000000
0.234527 0.134111 0.000000
0.310203 0.161271 0.000000
0.370937 0.194408 0.000000
0.398735 0.231040 0.000000
0.414203 0.270311 0.000000
0.415488 0.310391 0.000000
0.406935 0.351426 0.000000
0.387417 0.390130 0.000000
0.366447 0.431144 0.000000
0.344252 0.475458 0.000000
0.327741 0.526412 0.000000
0.310391 0.584512 0.000000
0.305404 0.650343 0.000000
0.307724 0.719297 0.000000
0.335431 0.790554 0.000000
0.393231 0.858081 0.000000
0.497811 0.912652 0.000000
0.700193 0.946890 0.000000
1.000000 0.955188 0.000000
0.000000 0.140250 0.000000
0.095058 0.142548 0.000000
0.182961 0.152561 0.000000
0.248184 0.175195 0.000000
0.304087 0.203197 0.000000
0.330644 0.235386 0.000000
0.346307 0.269802 0.000000
0.349657 0.305404 0.000000
0.344517 0.342853 0.000000
0.329717 0.381061 0.000000
0.313640 0.423087 0.000000
0.296060 0.470400 0.000000
0.284568 0.523693 0.000000
0.270311 0.585797 0.000000
0.269802 0.653693 0.000000
0.273934 0.726590 0.000000
0.306475 0.797824 0.000000
0.362388 0.866685 0.000000
0.468444 0.919589 0.000000
0.677801 0.954353 0.000000
1.000000 0.962289 0.000000
0.000000 0.171088 0.000000
0.071724 0.173821 0.000000
0.135046 0.181481 0.000000
0.184901 0.198425 0.000000
0.228676 0.218345 0.000000
0.255764 0.243991 0.000000
0.273410 0.273934 0.000000
0.280703 0.307724 0.000000
0.279253 0.345362 0.000000
0.269049 0.385799 0.000000
0.257872 0.430369 0.000000
0.246282 0.480711 0.000000
0.239940 0.535648 0.000000
0.231040 0.601265 0.000000
0.235386 0.669356 0.000000
0.243991 0.744236 0.000000
0.281071 0.812111 0.000000
0.336488 0.879668 0.000000
0.443345 0.928470 0.000000
0.658116 0.961826 0.000000
1.000000 0.969078 0.000000
0.000000 0.210857 0.000000
0.050496 0.215249 0.000000
0.096744 0.224038 0.000000
0.134037 0.240543 0.000000
0.167344 0.258204 0.000000
0.187889 0.281071 0.000000
0.202176 0.306475 0.000000
0.209446 0.335431 0.000000
0.211756 0.368306 0.000000
0.207813 0.407321 0.000000
0.203477 0.452140 0.000000
0.197898 0.504603 0.000000
0.197072 0.559943 0.000000
0.194408 0.629063 0.000000
0.203197 0.695913 0.000000
0.218345 0.771324 0.000000
0.258204 0.832656 0.000000
0.315769 0.896622 0.000000
0.423658 0.939441 0.000000
0.642754 0.969289 0.000000
1.000000 0.975503 0.000000
0.000000 0.276934 0.000000
0.029045 0.280660 0.000000
0.056578 0.287590 0.000000
0.081037 0.300305 0.000000
0.103378 0.315769 0.000000
0.120332 0.336488 0.000000
0.133315 0.362388 0.000000
0.141919 0.393231 0.000000
0.146771 0.429785 0.000000
0.147831 0.472711 0.000000
0.148938 0.519514 0.000000
0.150609 0.571435 0.000000
0.155217 0.625705 0.000000
0.161271 0.689797 0.000000
0.175195 0.751816 0.000000
0.198425 0.815099 0.000000
0.240543 0.865963 0.000000
0.300305 0.918963 0.000000
0.407666 0.952441 0.000000
0.630027 0.976853 0.000000
1.000000 0.981787 0.000000
0.000000 0.384409 0.000000
0.016913 0.387773 0.000000
0.032986 0.395760 0.000000
0.047559 0.407666 0.000000
0.060559 0.423658 0.000000
0.071530 0.443345 0.000000
0.080411 0.468444 0.000000
0.087348 0.497811 0.000000
0.092912 0.532781 0.000000
0.097677 0.573791 0.000000
0.103753 0.617484 0.000000
0.111363 0.663651 0.000000
0.121056 0.712308 0.000000
0.134111 0.765473 0.000000
0.152561 0.817039 0.000000
0.181481 0.864954 0.000000
0.224038 0.903256 0.000000
0.287590 0.943422 0.000000
0.395760 0.967014 0.000000
0.619859 0.984421 0.000000
1.000000 0.987890 0.000000
0.000000 0.610099 0.000000
0.007817 0.612732 0.000000
0.015579 0.619859 0.000000
0.023147 0.630027 0.000000
0.030711 0.642754 0.000000
0.038174 0.658116 0.000000
0.045647 0.677801 0.000000
0.053110 0.700193 0.000000
0.061010 0.726349 0.000000
0.069582 0.755874 0.000000
0.079472 0.785188 0.000000
0.090798 0.814363 0.000000
0.104224 0.844717 0.000000
0.120960 0.875759 0.000000
0.142548 0.904942 0.000000
0.173821 0.928276 0.000000
0.215249 0.949504 0.000000
0.280660 0.970955 0.000000
0.387773 0.983087 0.000000
0.612732 0.992183 0.000000
1.000000 0.994001 0.000000
0.000000 1.000000 0.000000
0.005999 1.000000 0.000000
0.012110 1.000000 0.000000
0.018213 1.000000 0.000000
0.024497 1.000000 0.000000
0.030922 1.000000 0.000000
0.037711 1.000000 0.000000
0.044812 1.000000 0.000000
0.052978 1.000000 0.000000
0.062163 1.000000 0.000000
0.072842 1.000000 0.000000
0.084991 1.000000 0.000000
0.099397 1.000000 0.000000
0.117444 1.000000 0.000000
0.140250 1.000000 0.000000
0.171088 1.000000 0.000000
0.210857 1.000000 0.000000
0.276934 1.000000 0.000000
0.384409 1.000000 0.000000
0.610099 1.000000 0.000000
1.000000 1.000000 0.000000
0.000000 0.000000 0.082500
0.389901 0.000000 0.082500
0.615591 0.000000 0.082500
0.723066 0.000000 0.082500
0.789143 0.000000 0.082500
0.828912 0.000000 0.082500
0.859750 0.000000 0.082500
0.882556 0.000000 0.082500
0.900603 0.000000 0.082500
0.915009 0.000000 0.082500
0.927158 0.000000 0.082500
0.937837 0.000000 0.082500
0.947022 0.000000 0.082500
0.955188 0.000000 0.082500
0.962289 0.000000 0.082500
0.969078 0.000000 0.082500
0.975503 0.000000 0.082500
0.981787 0.000000 0.082500
0.987890 0.000000 0.082500
0.994001 0.000000 0.082500
1.000000 0.000000 0.082500
0.000000 0.005999 0.082500
0.387268 0.007817 0.082500
0.612227 0.016913 0.082500
0.719340 0.029045 0.082500
0.784751 0.050496 0.082500
0.826179 0.071724 0.082500
0.857452 0.095058 0.082500
0.879040 0.124241 0.082500
0.895776 0.155283 0.082500
0.909202 0.185637 0.082500
0.920528 0.214812 0.082500
0.930418 0.244126 0.082500
0.938990 0.273651 0.082500
0.946890 0.299807 0.082500
0.954353 0.322199 0.082500
0.961826 0.341884 0.082500
0.969289 0.357246 0.082500
0.976853 0.369973 0.082500
0.984421 0.380141 0.082500
0.992183 0.387268 0.082500
1.000000 0.389901 0.082500
0.000000 0.012110 0.082500
0.380141 0.015579 0.082500
0.604240 0.032986 0.082500
0.712410 0.056578 0.082500
0.775962 0.096744 0.082500
0.818519 0.135046 0.082500
0.847439 0.182961 0.082500
0.865889 0.234527 0.082500
0.878944 0.287692 0.082500
0.888637 0.336349 0.082500
0.896247 0.382516 0.082500
0.902323 0.426209 0.082500
0.907088 0.467219 0.082500
0.912652 0.502189 0.082500
0.919589 0.531556 0.082500
0.928470 0.556655 0.082500
0.939441 0.576342 0.082500
0.952441 0.592334 0.082500
0.967014 0.604240 0.082500
0.983087 0.612227 0.082500
1.000000 0.615591 0.082500
0.000000 0.018213 0.082500
0.369973 0.023147 0.082500
0.592334 0.047559 0.082500
0.699695 0.081037 0.082500
0.759457 0.134037 0.082500
0.801575 0.184901 0.082500
0.824805 0.248184 0.082500
0.838729 0.310203 0.082500
0.844783 0.374295 0.082500
0.849391 0.428565 0.082500
0.851062 0.480486 0.082500
0.852169 0.527289 0.082500
0.853229 0.570215 0.082500
0.858081 0.606769 0.082500
0.866685 0.637612 0.082500
0.879668 0.663512 0.082500
0.896622 0.684231 0.082500
0.918963 0.699695 0.082500
0.943422 0.712410 0.082500
0.970955 0.719340 0.082500
1.000000 0.723066 0.082500
0.000000 0.024497 0.082500
0.357246 0.030711 0.082500
0.576342 0.060559 0.082500
0.684231 0.103378 0.082500
0.741796 0.167344 0.082500
0.781655 0.228676 0.082500
0.796803 0.304087 0.082500
0.805592 0.370937 0.082500
0.802928 0.440057 0.082500
0.802102 0.495397 0.082500
0.796523 0.547860 0.082500
0.792187 0.592679 0.082500
0.788244 0.631694 0.082500
0.790554 0.664569 0.082500
0.797824 0.693525 0.082500
0.812111 0.718929 0.082500
0.832656 0.741796 0.082500
0.865963 0.759457 0.082500
0.903256 0.775962 0.082500
0.949504 0.784751 0.082500
1.000000 0.789143 0.082500
0.000000 0.030922 0.082500
0.341884 0.038174 0.082500
0.556655 0.071530 0.082500
0.663512 0.120332 0.082500
0.718929 0.187889 0.082500
0.756009 0.255764 0.082500
0.764614 0.330644 0.082500
0.768960 0.398735 0.082500
0.760060 0.464352 0.082500
0.753718 0.519289 0.082500
0.742128 0.569631 0.082500
0.730951 0.614201 0.082500
0.720747 0.654638 0.082500
0.719297 0.692276 0.082500
0.726590 0.726066 0.082500
0.744236 0.756009 0.082500
0.771324 0.781655 0.082500
0.815099 0.801575 0.082500
0.864954 0.818519 0.082500
0.928276 0.826179 0.082500
1.000000 0.828912 0.082500
0.000000 0.037711 0.082500
0.322199 0.045647 0.082500
0.531556 0.080411 0.082500
0.637612 0.133315 0.082500
0.693525 0.202176 0.082500
0.726066 0.273410 0.082500
0.730198 0.346307 0.082500
0.729689 0.414203 0.082500
0.715432 0.476307 0.082500
0.703940 0.529600 0.082500
0.686360 0.576913 0.082500
0.670283 0.618939 0.082500
0.655483 0.657147 0.082500
0.650343 0.694596 0.082500
0.653693 0.730198 0.082500
0.669356 0.764614 0.082500
0.695913 0.796803 0.082500
0.751816 0.824805 0.082500
0.817039 0.847439 0.082500
0.904942 0.857452 0.082500
1.000000 0.859750 0.082500
0.000000 0.044812 0.082500
0.299807 0.053110 0.082500
0.502189 0.087348 0.082500
0.606769 0.141919 0.082500
0.664569 0.209446 0.082500
0.692276 0.280703 0.082500
0.694596 0.349657 0.082500
0.689609 0.415488 0.082500
0.672259 0.473588 0.082500
0.655748 0.524542 0.082500
0.633553 0.568856 0.082500
0.612583 0.609870 0.082500
0.593065 0.648574 0.082500
0.584512 0.689609 0.082500
0.585797 0.729689 0.082500
0.601265 0.768960 0.082500
0.629063 0.805592 0.082500
0.689797 0.838729 0.082500
0.765473 0.865889 0.082500
0.875759 0.879040 0.082500
1.000000 0.882556 0.082500
0.000000 0.052978 0.082500
0.273651 0.061010 0.082500
0.467219 0.092912 0.082500
0.570215 0.146771 0.082500
0.631694 0.211756 0.082500
0.654638 0.279253 0.082500
0.657147 0.344517 0.082500
0.648574 0.406935 0.082500
0.629342 0.462221 0.082500
0.608439 0.510365 0.082500
0.582740 0.551862 0.082500
0.559383 0.591283 0.082500
0.537779 0.629342 0.082500
0.526412 0.672259 0.082500
0.523693 0.715432 0.082500
0.535648 0.760060 0.082500
0.559943 0.802928 0.082500
0.625705 0.844783 0.082500
0.712308 0.878944 0.082500
0.844717 0.895776 0.082500
1.000000 0.900603 0.082500
0.000000 0.062163 0.082500
0.244126 0.069582 0.082500
0.426209 0.097677 0.082500
0.527289 0.147831 0.082500
0.592679 0.207813 0.082500
0.614201 0.269049 0.082500
0.618939 0.329717 0.082500
0.609870 0.387417 0.082500
0.591283 0.440617 0.082500
0.567722 0.486429 0.082500
0.540118 0.527364 0.082500
0.513571 0.567722 0.082500
0.489635 0.608439 0.082500
0.475458 0.655748 0.082500
0.470400 0.703940 0.082500
0.480711 0.753718 0.082500
0.504603 0.802102 0.082500
0.571435 0.849391 0.082500
0.663651 0.888637 0.082500
0.814363 0.909202 0.082500
1.000000 0.915009 0.082500
0.000000 0.072842 0.082500
0.214812 0.079472 0.082500
0.382516 0.103753 0.082500
0.480486 0.148938 0.082500
0.547860 0.203477 0.082500
0.569631 0.257872 0.082500
0.576913 0.313640 0.082500
0.568856 0.366447 0.082500
0.551862 0.417260 0.082500
0.527364 0.459882 0.082500
0.500000 0.500000 0.082500
0.472636 0.540118 0.082500
0.448138 0.582740 0.082500
0.431144 0.633553 0.082500
0.423087 0.686360 0.082500
0.430369 0.742128 0.082500
0.452140 0.796523 0.082500
0.519514 0.851062 0.082500
0.617484 0.896247 0.082500
0.785188 0.920528 0.082500
1.000000 0.927158 0.082500
0.000000 0.084991 0.082500
0.185637 0.090798 0.082500
0.336349 0.111363 0.082500
0.428565 0.150609 0.082500
0.495397 0.197898 0.082500
0.519289 0.246282 0.082500
0.529600 0.296060 0.082500
0.524542 0.344252 0.082500
0.510365 0.391561 0.082500
0.486429 0.432278 0.082500
0.459882 0.472636 0.082500
0.432278 0.513571 0.082500
0.408717 0.559383 0.082500
0.390130 0.612583 0.082500
0.381061 0.670283 0.082500
0.385799 0.730951 0.082500
0.407321 0.792187 0.082500
0.472711 0.852169 0.082500
0.573791 0.902323 0.082500
0.755874 0.930418 0.082500
1.000000 0.937837 0.082500
0.000000 0.099397 0.082500
0.155283 0.104224 0.082500
0.287692 0.121056 0.082500
0.374295 0.155217 0.082500
0.440057 0.197072 0.082500
0.464352 0.239940 0.082500
0.476307 0.284568 0.082500
0.473588 0.327741 0.082500
0.462221 0.370658 0.082500
0.440617 0.408717 0.082500
0.417260 0.448138 0.082500
0.391561 0.489635 0.082500
0.370658 0.537779 0.082500
0.351426 0.593065 0.082500
0.342853 0.655483 0.082500
0.345362 0.720747 0.082500
0.368306 0.788244 0.082500
0.429785 0.853229 0.082500
0.532781 0.907088 0.082500
0.726349 0.938990 0.082500
1.000000 0.947022 0.082500
0.000000 0.117444 0.082500
0.124241 0.120960 0.082500
0.234527 0.134111 0.082500
0.310203 0.161271 0.082500
0.370937 0.194408 0.082500
0.398735 0.231040 0.082500
0.414203 0.270311 0.082500
0.415488 0.310391 0.082500
0.406935 0.351426 0.082500
0.387417 0.390130 0.082500
0.366447 0.431144 0.082500
0.344252 0.475458 0.082500
0.327741 0.526412 0.082500
0.310391 0.584512 0.082500
0.305404 0.650343 0.082500
0.307724 0.719297 0.082500
0.335431 0.790554 0.082500
0.393231 0.858081 0.082500
0.497811 0.912652 0.082500
0.700193 0.946890 0.082500
1.000000 0.955188 0.082500
0.000000 0.140250 0.082500
0.095058 0.142548 0.082500
0.182961 0.152561 0.082500
0.248184 0.175195 0.082500