# vtk DataFile Version 2.0
Mesh for Fierro
ASCII
DATASET UNSTRUCTURED_GRID

POINTS 125 float
0 0 0 
0.25 0 0 
0.5 0 0 
0.75 0 0 
1 0 0 
0 0.25 0 
0.25 0.25 0 
0.5 0.25 0 
0.75 0.25 0 
1 0.25 0 
0 0.5 0 
0.25 0.5 0 
0.5 0.5 0 
0.75 0.5 0 
1 0.5 0 
0 0.75 0 
0.25 0.75 0 
0.5 0.75 0 
0.75 0.75 0 
1 0.75 0 
0 1 0 
0.25 1 0 
0.5 1 0 
0.75 1 0 
1 1 0 
0 0 0.25 
0.25 0 0.25 
0.5 0 0.25 
0.75 0 0.25 
1 0 0.25 
0 0.25 0.25 
0.25 0.25 0.25 
0.5 0.25 0.25 
0.75 0.25 0.25 
1 0.25 0.25 
0 0.5 0.25 
0.25 0.5 0.25 
0.5 0.5 0.25 
0.75 0.5 0.25 
1 0.5 0.25 
0 0.75 0.25 
0.25 0.75 0.25 
0.5 0.75 0.25 
0.75 0.75 0.25 
1 0.75 0.25 
0 1 0.25 
0.25 1 0.25 
0.5 1 0.25 
0.75 1 0.25 
1 1 0.25 
0 0 0.5 
0.25 0 0.5 
0.5 0 0.5 
0.75 0 0.5 
1 0 0.5 
0 0.25 0.5 
0.25 0.25 0.5 
0.5 0.25 0.5 
0.75 0.25 0.5 
1 0.25 0.5 
0 0.5 0.5 
0.25 0.5 0.5 
0.5 0.5 0.5 
0.75 0.5 0.5 
1 0.5 0.5 
0 0.75 0.5 
0.25 0.75 0.5 
0.5 0.75 0.5 
0.75 0.75 0.5 
1 0.75 0.5 
0 1 0.5 
0.25 1 0.5 
0.5 1 0.5 
0.75 1 0.5 
1 1 0.5 
0 0 0.75 
0.25 0 0.75 
0.5 0 0.75 
0.75 0 0.75 
1 0 0.75 
0 0.25 0.75 
0.25 0.25 0.75 
0.5 0.25 0.75 
0.75 0.25 0.75 
1 0.25 0.75 
0 0.5 0.75 
0.25 0.5 0.75 
0.5 0.5 0.75 
0.75 0.5 0.75 
1 0.5 0.75 
0 0.75 0.75 
0.25 0.75 0.75 
0.5 0.75 0.75 
0.75 0.75 0.75 
1 0.75 0.75 
0 1 0.75 
0.25 1 0.75 
0.5 1 0.75 
0.75 1 0.75 
1 1 0.75 
0 0 1 
0.25 0 1 
0.5 0 1 
0.75 0 1 
1 0 1 
0 0.25 1 
0.25 0.25 1 
0.5 0.25 1 
0.75 0.25 1 
1 0.25 1 
0 0.5 1 
0.25 0.5 1 
0.5 0.5 1 
0.75 0.5 1 
1 0.5 1 
0 0.75 1 
0.25 0.75 1 
0.5 0.75 1 
0.75 0.75 1 
1 0.75 1 
0 1 1 
0.25 1 1 
0.5 1 1 
0.75 1 1 
1 1 1 

CELLS 8 224
27 0 2 12 10 50 52 62 60 1 7 11 5 51 57 61 55 25 27 35 37 30 32 26 36 6 56 31 
27 2 4 14 12 52 54 64 62 3 9 13 7 53 59 63 57 27 29 37 39 32 34 28 38 8 58 33 
27 10 12 22 20 60 62 72 70 11 17 21 15 61 67 71 65 35 37 45 47 40 42 36 46 16 66 41 
27 12 14 24 22 62 64 74 72 13 19 23 17 63 69 73 67 37 39 47 49 42 44 38 48 18 68 43 
27 50 52 62 60 100 102 112 110 51 57 61 55 101 107 111 105 75 77 85 87 80 82 76 86 56 106 81 
27 52 54 64 62 102 104 114 112 53 59 63 57 103 109 113 107 77 79 87 89 82 84 78 88 58 108 83 
27 60 62 72 70 110 112 122 120 61 67 71 65 111 117 121 115 85 87 95 97 90 92 86 96 66 116 91 
27 62 64 74 72 112 114 124 122 63 69 73 67 113 119 123 117 87 89 97 99 92 94 88 98 68 118 93 

CELL_TYPES 8
72
72
72
72
72
72
72
72

POINT_DATA 125
SCALARS point_var float 1
LOOKUP_TABLE default
0
1
2
3
4
5
6
7
8
9
10
11
12
13
14
15
16
17
18
19
20
21
22
23
24
25
26
27
28
29
30
31
32
33
34
35
36
37
38
39
40
41
42
43
44
45
46
47
48
49
50
51
52
53
54
55
56
57
58
59
60
61
62
63
64
65
66
67
68
69
70
71
72
73
74
75
76
77
78
79
80
81
82
83
84
85
86
87
88
89
90
91
92
93
94
95
96
97
98
99
100
101
102
103
104
105
106
107
108
109
110
111
112
113
114
115
116
117
118
119
120
121
122
123
124

VECTORS point_vec float
0 1 2
0 1 2
0 1 2
0 1 2
0 1 2
0 1 2
0 1 2
0 1 2
0 1 2
0 1 2
0 1 2
0 1 2
0 1 2
0 1 2
0 1 2
0 1 2
0 1 2
0 1 2
0 1 2
0 1 2
0 1 2
0 1 2
0 1 2
0 1 2
0 1 2
0 1 2
0 1 2
0 1 2
0 1 2
0 1 2
0 1 2
0 1 2
0 1 2
0 1 2
0 1 2
0 1 2
0 1 2
0 1 2
0 1 2
0 1 2
0 1 2
0 1 2
0 1 2
0 1 2
0 1 2
0 1 2
0 1 2
0 1 2
0 1 2
0 1 2
0 1 2
0 1 2
0 1 2
0 1 2
0 1 2
0 1 2
0 1 2
0 1 2
0 1 2
0 1 2
0 1 2
0 1 2
0 1 2
0 1 2
0 1 2
0 1 2
0 1 2
0 1 2
0 1 2
0 1 2
0 1 2
0 1 2
0 1 2
0 1 2
0 1 2
0 1 2
0 1 2
0 1 2
0 1 2
0 1 2
0 1 2
0 1 2
0 1 2
0 1 2
0 1 2
0 1 2
0 1 2
0 1 2
0 1 2
0 1 2
0 1 2
0 1 2
0 1 2
0 1 2
0 1 2
0 1 2
0 1 2
0 1 2
0 1 2
0 1 2
0 1 2
0 1 2
0 1 2
0 1 2
0 1 2
0 1 2
0 1 2
0 1 2
0 1 2
0 1 2
0 1 2
0 1 2
0 1 2
0 1 2
0 1 2
0 1 2
0 1 2
0 1 2
0 1 2
0 1 2
0 1 2
0 1 2
0 1 2
0 1 2
0 1 2

CELL_DATA 8
SCALARS elem_var float 1
LOOKUP_TABLE default 
0
1
2
3
4
5
6
7

SCALARS elem_var2 float 1
LOOKUP_TABLE default 
0
18446744073709551615
18446744073709551614
18446744073709551613
18446744073709551612
18446744073709551611
18446744073709551610
18446744073709551609
