# vtk DataFile Version 2.0
Mesh for Fierro
ASCII
DATASET UNSTRUCTURED_GRID

POINTS 27 float
0 0 0 
0.5 0 0 
1 0 0 
0 0.5 0 
0.5 0.5 0 
1 0.5 0 
0 1 0 
0.5 1 0 
1 1 0 
0 0 0.5 
0.5 0 0.5 
1 0 0.5 
0 0.5 0.5 
0.5 0.5 0.5 
1 0.5 0.5 
0 1 0.5 
0.5 1 0.5 
1 1 0.5 
0 0 1 
0.5 0 1 
1 0 1 
0 0.5 1 
0.5 0.5 1 
1 0.5 1 
0 1 1 
0.5 1 1 
1 1 1 

CELLS 1 28
27 0 2 8 6 18 20 26 24 1 5 7 3 19 23 25 21 9 11 15 17 12 14 10 16 4 22 13 

CELL_TYPES 1
72

POINT_DATA 27
SCALARS point_var float 1
LOOKUP_TABLE default
0
1
2
3
4
5
6
7
8
9
10
11
12
13
14
15
16
17
18
19
20
21
22
23
24
25
26

VECTORS point_vec float
0 1 2
0 1 2
0 1 2
0 1 2
0 1 2
0 1 2
0 1 2
0 1 2
0 1 2
0 1 2
0 1 2
0 1 2
0 1 2
0 1 2
0 1 2
0 1 2
0 1 2
0 1 2
0 1 2
0 1 2
0 1 2
0 1 2
0 1 2
0 1 2
0 1 2
0 1 2
0 1 2

CELL_DATA 1
SCALARS elem_var float 1
LOOKUP_TABLE default 
0

SCALARS elem_var2 float 1
LOOKUP_TABLE default 
0
