# vtk DataFile Version 2.0
Mesh for Fierro
ASCII
DATASET UNSTRUCTURED_GRID

POINTS 756 float
0 0 0 
0.05 0 0 
0.1 0 0 
0.15 0 0 
0.2 0 0 
0.25 0 0 
0.3 0 0 
0.35 0 0 
0.4 0 0 
0.45 0 0 
0.5 0 0 
0.55 0 0 
0.6 0 0 
0.65 0 0 
0.7 0 0 
0.75 0 0 
0.8 0 0 
0.85 0 0 
0.9 0 0 
0.95 0 0 
1 0 0 
0 0.02 0 
0.05 0.02 0 
0.1 0.02 0 
0.15 0.02 0 
0.2 0.02 0 
0.25 0.02 0 
0.3 0.02 0 
0.35 0.02 0 
0.4 0.02 0 
0.45 0.02 0 
0.5 0.02 0 
0.55 0.02 0 
0.6 0.02 0 
0.65 0.02 0 
0.7 0.02 0 
0.75 0.02 0 
0.8 0.02 0 
0.85 0.02 0 
0.9 0.02 0 
0.95 0.02 0 
1 0.02 0 
0 0.04 0 
0.05 0.04 0 
0.1 0.04 0 
0.15 0.04 0 
0.2 0.04 0 
0.25 0.04 0 
0.3 0.04 0 
0.35 0.04 0 
0.4 0.04 0 
0.45 0.04 0 
0.5 0.04 0 
0.55 0.04 0 
0.6 0.04 0 
0.65 0.04 0 
0.7 0.04 0 
0.75 0.04 0 
0.8 0.04 0 
0.85 0.04 0 
0.9 0.04 0 
0.95 0.04 0 
1 0.04 0 
0 0.06 0 
0.05 0.06 0 
0.1 0.06 0 
0.15 0.06 0 
0.2 0.06 0 
0.25 0.06 0 
0.3 0.06 0 
0.35 0.06 0 
0.4 0.06 0 
0.45 0.06 0 
0.5 0.06 0 
0.55 0.06 0 
0.6 0.06 0 
0.65 0.06 0 
0.7 0.06 0 
0.75 0.06 0 
0.8 0.06 0 
0.85 0.06 0 
0.9 0.06 0 
0.95 0.06 0 
1 0.06 0 
0 0.08 0 
0.05 0.08 0 
0.1 0.08 0 
0.15 0.08 0 
0.2 0.08 0 
0.25 0.08 0 
0.3 0.08 0 
0.35 0.08 0 
0.4 0.08 0 
0.45 0.08 0 
0.5 0.08 0 
0.55 0.08 0 
0.6 0.08 0 
0.65 0.08 0 
0.7 0.08 0 
0.75 0.08 0 
0.8 0.08 0 
0.85 0.08 0 
0.9 0.08 0 
0.95 0.08 0 
1 0.08 0 
0 0.1 0 
0.05 0.1 0 
0.1 0.1 0 
0.15 0.1 0 
0.2 0.1 0 
0.25 0.1 0 
0.3 0.1 0 
0.35 0.1 0 
0.4 0.1 0 
0.45 0.1 0 
0.5 0.1 0 
0.55 0.1 0 
0.6 0.1 0 
0.65 0.1 0 
0.7 0.1 0 
0.75 0.1 0 
0.8 0.1 0 
0.85 0.1 0 
0.9 0.1 0 
0.95 0.1 0 
1 0.1 0 
0 0 0.02 
0.05 0 0.02 
0.1 0 0.02 
0.15 0 0.02 
0.2 0 0.02 
0.25 0 0.02 
0.3 0 0.02 
0.35 0 0.02 
0.4 0 0.02 
0.45 0 0.02 
0.5 0 0.02 
0.55 0 0.02 
0.6 0 0.02 
0.65 0 0.02 
0.7 0 0.02 
0.75 0 0.02 
0.8 0 0.02 
0.85 0 0.02 
0.9 0 0.02 
0.95 0 0.02 
1 0 0.02 
0 0.02 0.02 
0.05 0.02 0.02 
0.1 0.02 0.02 
0.15 0.02 0.02 
0.2 0.02 0.02 
0.25 0.02 0.02 
0.3 0.02 0.02 
0.35 0.02 0.02 
0.4 0.02 0.02 
0.45 0.02 0.02 
0.5 0.02 0.02 
0.55 0.02 0.02 
0.6 0.02 0.02 
0.65 0.02 0.02 
0.7 0.02 0.02 
0.75 0.02 0.02 
0.8 0.02 0.02 
0.85 0.02 0.02 
0.9 0.02 0.02 
0.95 0.02 0.02 
1 0.02 0.02 
0 0.04 0.02 
0.05 0.04 0.02 
0.1 0.04 0.02 
0.15 0.04 0.02 
0.2 0.04 0.02 
0.25 0.04 0.02 
0.3 0.04 0.02 
0.35 0.04 0.02 
0.4 0.04 0.02 
0.45 0.04 0.02 
0.5 0.04 0.02 
0.55 0.04 0.02 
0.6 0.04 0.02 
0.65 0.04 0.02 
0.7 0.04 0.02 
0.75 0.04 0.02 
0.8 0.04 0.02 
0.85 0.04 0.02 
0.9 0.04 0.02 
0.95 0.04 0.02 
1 0.04 0.02 
0 0.06 0.02 
0.05 0.06 0.02 
0.1 0.06 0.02 
0.15 0.06 0.02 
0.2 0.06 0.02 
0.25 0.06 0.02 
0.3 0.06 0.02 
0.35 0.06 0.02 
0.4 0.06 0.02 
0.45 0.06 0.02 
0.5 0.06 0.02 
0.55 0.06 0.02 
0.6 0.06 0.02 
0.65 0.06 0.02 
0.7 0.06 0.02 
0.75 0.06 0.02 
0.8 0.06 0.02 
0.85 0.06 0.02 
0.9 0.06 0.02 
0.95 0.06 0.02 
1 0.06 0.02 
0 0.08 0.02 
0.05 0.08 0.02 
0.1 0.08 0.02 
0.15 0.08 0.02 
0.2 0.08 0.02 
0.25 0.08 0.02 
0.3 0.08 0.02 
0.35 0.08 0.02 
0.4 0.08 0.02 
0.45 0.08 0.02 
0.5 0.08 0.02 
0.55 0.08 0.02 
0.6 0.08 0.02 
0.65 0.08 0.02 
0.7 0.08 0.02 
0.75 0.08 0.02 
0.8 0.08 0.02 
0.85 0.08 0.02 
0.9 0.08 0.02 
0.95 0.08 0.02 
1 0.08 0.02 
0 0.1 0.02 
0.05 0.1 0.02 
0.1 0.1 0.02 
0.15 0.1 0.02 
0.2 0.1 0.02 
0.25 0.1 0.02 
0.3 0.1 0.02 
0.35 0.1 0.02 
0.4 0.1 0.02 
0.45 0.1 0.02 
0.5 0.1 0.02 
0.55 0.1 0.02 
0.6 0.1 0.02 
0.65 0.1 0.02 
0.7 0.1 0.02 
0.75 0.1 0.02 
0.8 0.1 0.02 
0.85 0.1 0.02 
0.9 0.1 0.02 
0.95 0.1 0.02 
1 0.1 0.02 
0 0 0.04 
0.05 0 0.04 
0.1 0 0.04 
0.15 0 0.04 
0.2 0 0.04 
0.25 0 0.04 
0.3 0 0.04 
0.35 0 0.04 
0.4 0 0.04 
0.45 0 0.04 
0.5 0 0.04 
0.55 0 0.04 
0.6 0 0.04 
0.65 0 0.04 
0.7 0 0.04 
0.75 0 0.04 
0.8 0 0.04 
0.85 0 0.04 
0.9 0 0.04 
0.95 0 0.04 
1 0 0.04 
0 0.02 0.04 
0.05 0.02 0.04 
0.1 0.02 0.04 
0.15 0.02 0.04 
0.2 0.02 0.04 
0.25 0.02 0.04 
0.3 0.02 0.04 
0.35 0.02 0.04 
0.4 0.02 0.04 
0.45 0.02 0.04 
0.5 0.02 0.04 
0.55 0.02 0.04 
0.6 0.02 0.04 
0.65 0.02 0.04 
0.7 0.02 0.04 
0.75 0.02 0.04 
0.8 0.02 0.04 
0.85 0.02 0.04 
0.9 0.02 0.04 
0.95 0.02 0.04 
1 0.02 0.04 
0 0.04 0.04 
0.05 0.04 0.04 
0.1 0.04 0.04 
0.15 0.04 0.04 
0.2 0.04 0.04 
0.25 0.04 0.04 
0.3 0.04 0.04 
0.35 0.04 0.04 
0.4 0.04 0.04 
0.45 0.04 0.04 
0.5 0.04 0.04 
0.55 0.04 0.04 
0.6 0.04 0.04 
0.65 0.04 0.04 
0.7 0.04 0.04 
0.75 0.04 0.04 
0.8 0.04 0.04 
0.85 0.04 0.04 
0.9 0.04 0.04 
0.95 0.04 0.04 
1 0.04 0.04 
0 0.06 0.04 
0.05 0.06 0.04 
0.1 0.06 0.04 
0.15 0.06 0.04 
0.2 0.06 0.04 
0.25 0.06 0.04 
0.3 0.06 0.04 
0.35 0.06 0.04 
0.4 0.06 0.04 
0.45 0.06 0.04 
0.5 0.06 0.04 
0.55 0.06 0.04 
0.6 0.06 0.04 
0.65 0.06 0.04 
0.7 0.06 0.04 
0.75 0.06 0.04 
0.8 0.06 0.04 
0.85 0.06 0.04 
0.9 0.06 0.04 
0.95 0.06 0.04 
1 0.06 0.04 
0 0.08 0.04 
0.05 0.08 0.04 
0.1 0.08 0.04 
0.15 0.08 0.04 
0.2 0.08 0.04 
0.25 0.08 0.04 
0.3 0.08 0.04 
0.35 0.08 0.04 
0.4 0.08 0.04 
0.45 0.08 0.04 
0.5 0.08 0.04 
0.55 0.08 0.04 
0.6 0.08 0.04 
0.65 0.08 0.04 
0.7 0.08 0.04 
0.75 0.08 0.04 
0.8 0.08 0.04 
0.85 0.08 0.04 
0.9 0.08 0.04 
0.95 0.08 0.04 
1 0.08 0.04 
0 0.1 0.04 
0.05 0.1 0.04 
0.1 0.1 0.04 
0.15 0.1 0.04 
0.2 0.1 0.04 
0.25 0.1 0.04 
0.3 0.1 0.04 
0.35 0.1 0.04 
0.4 0.1 0.04 
0.45 0.1 0.04 
0.5 0.1 0.04 
0.55 0.1 0.04 
0.6 0.1 0.04 
0.65 0.1 0.04 
0.7 0.1 0.04 
0.75 0.1 0.04 
0.8 0.1 0.04 
0.85 0.1 0.04 
0.9 0.1 0.04 
0.95 0.1 0.04 
1 0.1 0.04 
0 0 0.06 
0.05 0 0.06 
0.1 0 0.06 
0.15 0 0.06 
0.2 0 0.06 
0.25 0 0.06 
0.3 0 0.06 
0.35 0 0.06 
0.4 0 0.06 
0.45 0 0.06 
0.5 0 0.06 
0.55 0 0.06 
0.6 0 0.06 
0.65 0 0.06 
0.7 0 0.06 
0.75 0 0.06 
0.8 0 0.06 
0.85 0 0.06 
0.9 0 0.06 
0.95 0 0.06 
1 0 0.06 
0 0.02 0.06 
0.05 0.02 0.06 
0.1 0.02 0.06 
0.15 0.02 0.06 
0.2 0.02 0.06 
0.25 0.02 0.06 
0.3 0.02 0.06 
0.35 0.02 0.06 
0.4 0.02 0.06 
0.45 0.02 0.06 
0.5 0.02 0.06 
0.55 0.02 0.06 
0.6 0.02 0.06 
0.65 0.02 0.06 
0.7 0.02 0.06 
0.75 0.02 0.06 
0.8 0.02 0.06 
0.85 0.02 0.06 
0.9 0.02 0.06 
0.95 0.02 0.06 
1 0.02 0.06 
0 0.04 0.06 
0.05 0.04 0.06 
0.1 0.04 0.06 
0.15 0.04 0.06 
0.2 0.04 0.06 
0.25 0.04 0.06 
0.3 0.04 0.06 
0.35 0.04 0.06 
0.4 0.04 0.06 
0.45 0.04 0.06 
0.5 0.04 0.06 
0.55 0.04 0.06 
0.6 0.04 0.06 
0.65 0.04 0.06 
0.7 0.04 0.06 
0.75 0.04 0.06 
0.8 0.04 0.06 
0.85 0.04 0.06 
0.9 0.04 0.06 
0.95 0.04 0.06 
1 0.04 0.06 
0 0.06 0.06 
0.05 0.06 0.06 
0.1 0.06 0.06 
0.15 0.06 0.06 
0.2 0.06 0.06 
0.25 0.06 0.06 
0.3 0.06 0.06 
0.35 0.06 0.06 
0.4 0.06 0.06 
0.45 0.06 0.06 
0.5 0.06 0.06 
0.55 0.06 0.06 
0.6 0.06 0.06 
0.65 0.06 0.06 
0.7 0.06 0.06 
0.75 0.06 0.06 
0.8 0.06 0.06 
0.85 0.06 0.06 
0.9 0.06 0.06 
0.95 0.06 0.06 
1 0.06 0.06 
0 0.08 0.06 
0.05 0.08 0.06 
0.1 0.08 0.06 
0.15 0.08 0.06 
0.2 0.08 0.06 
0.25 0.08 0.06 
0.3 0.08 0.06 
0.35 0.08 0.06 
0.4 0.08 0.06 
0.45 0.08 0.06 
0.5 0.08 0.06 
0.55 0.08 0.06 
0.6 0.08 0.06 
0.65 0.08 0.06 
0.7 0.08 0.06 
0.75 0.08 0.06 
0.8 0.08 0.06 
0.85 0.08 0.06 
0.9 0.08 0.06 
0.95 0.08 0.06 
1 0.08 0.06 
0 0.1 0.06 
0.05 0.1 0.06 
0.1 0.1 0.06 
0.15 0.1 0.06 
0.2 0.1 0.06 
0.25 0.1 0.06 
0.3 0.1 0.06 
0.35 0.1 0.06 
0.4 0.1 0.06 
0.45 0.1 0.06 
0.5 0.1 0.06 
0.55 0.1 0.06 
0.6 0.1 0.06 
0.65 0.1 0.06 
0.7 0.1 0.06 
0.75 0.1 0.06 
0.8 0.1 0.06 
0.85 0.1 0.06 
0.9 0.1 0.06 
0.95 0.1 0.06 
1 0.1 0.06 
0 0 0.08 
0.05 0 0.08 
0.1 0 0.08 
0.15 0 0.08 
0.2 0 0.08 
0.25 0 0.08 
0.3 0 0.08 
0.35 0 0.08 
0.4 0 0.08 
0.45 0 0.08 
0.5 0 0.08 
0.55 0 0.08 
0.6 0 0.08 
0.65 0 0.08 
0.7 0 0.08 
0.75 0 0.08 
0.8 0 0.08 
0.85 0 0.08 
0.9 0 0.08 
0.95 0 0.08 
1 0 0.08 
0 0.02 0.08 
0.05 0.02 0.08 
0.1 0.02 0.08 
0.15 0.02 0.08 
0.2 0.02 0.08 
0.25 0.02 0.08 
0.3 0.02 0.08 
0.35 0.02 0.08 
0.4 0.02 0.08 
0.45 0.02 0.08 
0.5 0.02 0.08 
0.55 0.02 0.08 
0.6 0.02 0.08 
0.65 0.02 0.08 
0.7 0.02 0.08 
0.75 0.02 0.08 
0.8 0.02 0.08 
0.85 0.02 0.08 
0.9 0.02 0.08 
0.95 0.02 0.08 
1 0.02 0.08 
0 0.04 0.08 
0.05 0.04 0.08 
0.1 0.04 0.08 
0.15 0.04 0.08 
0.2 0.04 0.08 
0.25 0.04 0.08 
0.3 0.04 0.08 
0.35 0.04 0.08 
0.4 0.04 0.08 
0.45 0.04 0.08 
0.5 0.04 0.08 
0.55 0.04 0.08 
0.6 0.04 0.08 
0.65 0.04 0.08 
0.7 0.04 0.08 
0.75 0.04 0.08 
0.8 0.04 0.08 
0.85 0.04 0.08 
0.9 0.04 0.08 
0.95 0.04 0.08 
1 0.04 0.08 
0 0.06 0.08 
0.05 0.06 0.08 
0.1 0.06 0.08 
0.15 0.06 0.08 
0.2 0.06 0.08 
0.25 0.06 0.08 
0.3 0.06 0.08 
0.35 0.06 0.08 
0.4 0.06 0.08 
0.45 0.06 0.08 
0.5 0.06 0.08 
0.55 0.06 0.08 
0.6 0.06 0.08 
0.65 0.06 0.08 
0.7 0.06 0.08 
0.75 0.06 0.08 
0.8 0.06 0.08 
0.85 0.06 0.08 
0.9 0.06 0.08 
0.95 0.06 0.08 
1 0.06 0.08 
0 0.08 0.08 
0.05 0.08 0.08 
0.1 0.08 0.08 
0.15 0.08 0.08 
0.2 0.08 0.08 
0.25 0.08 0.08 
0.3 0.08 0.08 
0.35 0.08 0.08 
0.4 0.08 0.08 
0.45 0.08 0.08 
0.5 0.08 0.08 
0.55 0.08 0.08 
0.6 0.08 0.08 
0.65 0.08 0.08 
0.7 0.08 0.08 
0.75 0.08 0.08 
0.8 0.08 0.08 
0.85 0.08 0.08 
0.9 0.08 0.08 
0.95 0.08 0.08 
1 0.08 0.08 
0 0.1 0.08 
0.05 0.1 0.08 
0.1 0.1 0.08 
0.15 0.1 0.08 
0.2 0.1 0.08 
0.25 0.1 0.08 
0.3 0.1 0.08 
0.35 0.1 0.08 
0.4 0.1 0.08 
0.45 0.1 0.08 
0.5 0.1 0.08 
0.55 0.1 0.08 
0.6 0.1 0.08 
0.65 0.1 0.08 
0.7 0.1 0.08 
0.75 0.1 0.08 
0.8 0.1 0.08 
0.85 0.1 0.08 
0.9 0.1 0.08 
0.95 0.1 0.08 
1 0.1 0.08 
0 0 0.1 
0.05 0 0.1 
0.1 0 0.1 
0.15 0 0.1 
0.2 0 0.1 
0.25 0 0.1 
0.3 0 0.1 
0.35 0 0.1 
0.4 0 0.1 
0.45 0 0.1 
0.5 0 0.1 
0.55 0 0.1 
0.6 0 0.1 
0.65 0 0.1 
0.7 0 0.1 
0.75 0 0.1 
0.8 0 0.1 
0.85 0 0.1 
0.9 0 0.1 
0.95 0 0.1 
1 0 0.1 
0 0.02 0.1 
0.05 0.02 0.1 
0.1 0.02 0.1 
0.15 0.02 0.1 
0.2 0.02 0.1 
0.25 0.02 0.1 
0.3 0.02 0.1 
0.35 0.02 0.1 
0.4 0.02 0.1 
0.45 0.02 0.1 
0.5 0.02 0.1 
0.55 0.02 0.1 
0.6 0.02 0.1 
0.65 0.02 0.1 
0.7 0.02 0.1 
0.75 0.02 0.1 
0.8 0.02 0.1 
0.85 0.02 0.1 
0.9 0.02 0.1 
0.95 0.02 0.1 
1 0.02 0.1 
0 0.04 0.1 
0.05 0.04 0.1 
0.1 0.04 0.1 
0.15 0.04 0.1 
0.2 0.04 0.1 
0.25 0.04 0.1 
0.3 0.04 0.1 
0.35 0.04 0.1 
0.4 0.04 0.1 
0.45 0.04 0.1 
0.5 0.04 0.1 
0.55 0.04 0.1 
0.6 0.04 0.1 
0.65 0.04 0.1 
0.7 0.04 0.1 
0.75 0.04 0.1 
0.8 0.04 0.1 
0.85 0.04 0.1 
0.9 0.04 0.1 
0.95 0.04 0.1 
1 0.04 0.1 
0 0.06 0.1 
0.05 0.06 0.1 
0.1 0.06 0.1 
0.15 0.06 0.1 
0.2 0.06 0.1 
0.25 0.06 0.1 
0.3 0.06 0.1 
0.35 0.06 0.1 
0.4 0.06 0.1 
0.45 0.06 0.1 
0.5 0.06 0.1 
0.55 0.06 0.1 
0.6 0.06 0.1 
0.65 0.06 0.1 
0.7 0.06 0.1 
0.75 0.06 0.1 
[...]
POINT_DATA 756
SCALARS point_var float 1
LOOKUP_TABLE default
0
1
2
3
4
5
6
7
8
9
10
11
12
13
14
15
16
17
18
19
20
21
22
23
24
25
26
27
28
29
30
31
32
33
34
35
36
37
38
39
40
41
42
43
44
45
46
47
48
49
50
51
52
53
54
55
56
57
58
59
60
61
62
63
64
65
66
67
68
69
70
71
72
73
74
75
76
77
78
79
80
81
82
83
84
85
86
87
88
89
90
91
92
93
94
95
96
97
98
99
100
101
102
103
104
105
106
107
108
109
110
111
112
113
114
115
116
117
118
119
120
121
122
123
124
125
126
127
128
129
130
131
132
133
134
135
136
137
138
139
140
141
142
143
144
145
146
147
148
149
150
151
152
153
154
155
156
157
158
159
160
161
162
163
164
165
166
167
168
169
170
171
172
173
174
175
176
177
178
179
180
181
182
183
184
185
186
187
188
189
190
191
192
193
194
195
196
197
198
199
200
201
202
203
204
205
206
207
208
209
210
211
212
213
214
215
216
217
218
219
220
221
222
223
224
225
226
227
228
229
230
231
232
233
234
235
236
237
238
239
240
241
242
243
244
245
246
247
248
249
250
251
252
253
254
255
256
257
258
259
260
261
262
263
264
265
266
267
268
269
270
271
272
273
274
275
276
277
278
279
280
281
282
283
284
285
286
287
288
289
290
291
292
293
294
295
296
297
298
299
300
301
302
303
304
305
306
307
308
309
310
311
312
313
314
315
316
317
318
319
320
321
322
323
324
325
326
327
328
329
330
331
332
333
334
335
336
337
338
339
340
341
342
343
344
345
346
347
348
349
350
351
352
353
354
355
356
357
358
359
360
361
362
363
364
365
366
367
368
369
370
371
372
373
374
375
376
377
378
379
380
381
382
383
384
385
386
387
388
389
390
391
392
393
394
395
396
397
398
399
400
401
402
403
404
405
406
407
408
409
410
411
412
413
414
415
416
417
418
419
420
421
422
423
424
425
426
427
428
429
430
431
432
433
434
435
436
437
438
439
440
441
442
443
444
445
446
447
448
449
450
451
452
453
454
455
456
457
458
459
460
461
462
463
464
465
466
467
468
469
470
471
472
473
474
475
476
477
478
479
480
481
482
483
484
485
486
487
488
489
490
491
492
493
494
495
496
497
498
499
500
501
502
503
504
505
506
507
508
509
510
511
512
513
514
515
516
517
518
519
520
521
522
523
524
525
526
527
528
529
530
531
532
533
534
535
536
537
538
539
540
541
542
543
544
545
546
547
548
549
550
551
552
553
554
555
556
557
558
559
560
561
562
563
564
565
566
567
568
569
570
571
572
573
574
575
576
577
578
579
580
581
582
583
584
585
586
587
588
589
590
591
592
593
594
595
596
597
598
599
600
601
602
603
604
605
606
607
608
609
610
611
612
613
614
615
616
617
618
619
620
621
622
623
624
625
626
627
628
629
630
631
632
633
634
635
636
637
638
639
640
641
642
643
644
645
646
647
648
649
650
651
652
653
654
655
656
657
658
659
660
661
662
663
664
665
666
667
668
669
670
671
672
673
674
675
676
677
678
679
680
681
682
683
684
685
686
687
688
689
690
691
692
693
694
695
696
697
698
699
700
701
702
703
704
705
706
707
708
709
710
711
712
713
714
715
716
717
718
719
720
721
722
723
724
725
726
727
728
729
730
731
732
733
734
735
736
737
738
739
740
741
742
743
744
745
746
747
748
749
750
751
752
753
754
755

VECTORS point_vec float
0 1 2
0 1 2
0 1 2
0 1 2
0 1 2
0 1 2
0 1 2
0 1 2
0 1 2
0 1 2
0 1 2
0 1 2
0 1 2
0 1 2
0 1 2
0 1 2
0 1 2
0 1 2
0 1 2
0 1 2
0 1 2
0 1 2
0 1 2
0 1 2
0 1 2
0 1 2
0 1 2
0 1 2
0 1 2
0 1 2
0 1 2
0 1 2
0 1 2
0 1 2
0 1 2
0 1 2
0 1 2
0 1 2
0 1 2
0 1 2
0 1 2
0 1 2
0 1 2
0 1 2
0 1 2
0 1 2
0 1 2
0 1 2
0 1 2
0 1 2
0 1 2
0 1 2
0 1 2
0 1 2
0 1 2
0 1 2
0 1 2
0 1 2
0 1 2
0 1 2
0 1 2
0 1 2
0 1 2
0 1 2
0 1 2
0 1 2
0 1 2
0 1 2
0 1 2
0 1 2
0 1 2
0 1 2
0 1 2
0 1 2
0 1 2
0 1 2
0 1 2
0 1 2
0 1 2
0 1 2
0 1 2
0 1 2
0 1 2
0 1 2
0 1 2
0 1 2
0 1 2
0 1 2
0 1 2
0 1 2
0 1 2
0 1 2
0 1 2
0 1 2
0 1 2
0 1 2
0 1 2
0 1 2
0 1 2
0 1 2
0 1 2
0 1 2
0 1 2
0 1 2
0 1 2
0 1 2
0 1 2
0 1 2
0 1 2
0 1 2
0 1 2
0 1 2
0 1 2
0 1 2
0 1 2
0 1 2
0 1 2
0 1 2
0 1 2
0 1 2
0 1 2
0 1 2
0 1 2
0 1 2
0 1 2
0 1 2
0 1 2
0 1 2
0 1 2
0 1 2
0 1 2
0 1 2
0 1 2
0 1 2
0 1 2
0 1 2
0 1 2
0 1 2
0 1 2
0 1 2
0 1 2
0 1 2
0 1 2
0 1 2
0 1 2
0 1 2
0 1 2
0 1 2
0 1 2
0 1 2
0 1 2
0 1 2
0 1 2
0 1 2
0 1 2
0 1 2
0 1 2
0 1 2
0 1 2
0 1 2
0 1 2
0 1 2
0 1 2
0 1 2
0 1 2
0 1 2
0 1 2
0 1 2
0 1 2
0 1 2
0 1 2
0 1 2
0 1 2
0 1 2
0 1 2
0 1 2
0 1 2
0 1 2
0 1 2
0 1 2
0 1 2
0 1 2
0 1 2
0 1 2
0 1 2
0 1 2
0 1 2
0 1 2
0 1 2
0 1 2
0 1 2
0 1 2
0 1 2
0 1 2
0 1 2
0 1 2
0 1 2
0 1 2
0 1 2
0 1 2
0 1 2
0 1 2
0 1 2
0 1 2
0 1 2
0 1 2
0 1 2
0 1 2
0 1 2
0 1 2
0 1 2
0 1 2
0 1 2
0 1 2
0 1 2
0 1 2
0 1 2
0 1 2
0 1 2
0 1 2
0 1 2
0 1 2
0 1 2
0 1 2
0 1 2
0 1 2
0 1 2
0 1 2
0 1 2
0 1 2
0 1 2
0 1 2
0 1 2
0 1 2
0 1 2
0 1 2
0 1 2
0 1 2
0 1 2
0 1 2
0 1 2
0 1 2
0 1 2
0 1 2
0 1 2
0 1 2
0 1 2
0 1 2
0 1 2
0 1 2
0 1 2
0 1 2
0 1 2
0 1 2
0 1 2
0 1 2
0 1 2
0 1 2
0 1 2
0 1 2
0 1 2
0 1 2
0 1 2
0 1 2
0 1 2
0 1 2
0 1 2
0 1 2
0 1 2
0 1 2
0 1 2
0 1 2
0 1 2
0 1 2
0 1 2
0 1 2
0 1 2
0 1 2
0 1 2
0 1 2
0 1 2
0 1 2
0 1 2
0 1 2
0 1 2
0 1 2
0 1 2
0 1 2
0 1 2
0 1 2
0 1 2
0 1 2
0 1 2
0 1 2
0 1 2
0 1 2
0 1 2
0 1 2
0 1 2
0 1 2
0 1 2
0 1 2
0 1 2
0 1 2
0 1 2
0 1 2
0 1 2
0 1 2
0 1 2
0 1 2
0 1 2
0 1 2
0 1 2
0 1 2
0 1 2
0 1 2
0 1 2
0 1 2
0 1 2
0 1 2
0 1 2
0 1 2
0 1 2
0 1 2
0 1 2
0 1 2
0 1 2
0 1 2
0 1 2
0 1 2
0 1 2
0 1 2
0 1 2
0 1 2
0 1 2
0 1 2
0 1 2
0 1 2
0 1 2
0 1 2
0 1 2
0 1 2
0 1 2
0 1 2
0 1 2
0 1 2
0 1 2
0 1 2
0 1 2
0 1 2
0 1 2
0 1 2
0 1 2
0 1 2
0 1 2
0 1 2
0 1 2
0 1 2
0 1 2
0 1 2
0 1 2
0 1 2
0 1 2
0 1 2
0 1 2
0 1 2
0 1 2
0 1 2
0 1 2
0 1 2
0 1 2
0 1 2
0 1 2
0 1 2
0 1 2
0 1 2
0 1 2
0 1 2
0 1 2
0 1 2
0 1 2
0 1 2
0 1 2
0 1 2
0 1 2
0 1 2
0 1 2
0 1 2
0 1 2
0 1 2
0 1 2
0 1 2
0 1 2
0 1 2
0 1 2
0 1 2
0 1 2
0 1 2
0 1 2
0 1 2
0 1 2
0 1 2
0 1 2
0 1 2
0 1 2
0 1 2
0 1 2
0 1 2
0 1 2
0 1 2
0 1 2
0 1 2
0 1 2
0 1 2
0 1 2
0 1 2
0 1 2
0 1 2
0 1 2
0 1 2
0 1 2
0 1 2
0 1 2
0 1 2
0 1 2
0 1 2
0 1 2
0 1 2
0 1 2
0 1 2
0 1 2
0 1 2
0 1 2
0 1 2
0 1 2
0 1 2
0 1 2
0 1 2
0 1 2
0 1 2
0 1 2
0 1 2
0 1 2
0 1 2
0 1 2
0 1 2
0 1 2
0 1 2
0 1 2
0 1 2
0 1 2
0 1 2
0 1 2
0 1 2
0 1 2
0 1 2
0 1 2
0 1 2
0 1 2
0 1 2
0 1 2
0 1 2
0 1 2
0 1 2
0 1 2
0 1 2
0 1 2
0 1 2
0 1 2
0 1 2
0 1 2
0 1 2
0 1 2
0 1 2
0 1 2
0 1 2
0 1 2
0 1 2
0 1 2
0 1 2
0 1 2
0 1 2
0 1 2
0 1 2
0 1 2
0 1 2
0 1 2
0 1 2
0 1 2
0 1 2
0 1 2
0 1 2
0 1 2
0 1 2
0 1 2
0 1 2
0 1 2
0 1 2
0 1 2
0 1 2
0 1 2
0 1 2
0 1 2
0 1 2
0 1 2
0 1 2
0 1 2
0 1 2
0 1 2
0 1 2
0 1 2
0 1 2
0 1 2
0 1 2
0 1 2
0 1 2
0 1 2
0 1 2
0 1 2
0 1 2
0 1 2
0 1 2
0 1 2
0 1 2
0 1 2
0 1 2
0 1 2
0 1 2
0 1 2
0 1 2
0 1 2
0 1 2
0 1 2
0 1 2
0 1 2
0 1 2
0 1 2
0 1 2
0 1 2
0 1 2
0 1 2
0 1 2
0 1 2
0 1 2
0 1 2
0 1 2
0 1 2
0 1 2
0 1 2
0 1 2
0 1 2
0 1 2
0 1 2
0 1 2
0 1 2
0 1 2
0 1 2
0 1 2
0 1 2
0 1 2
0 1 2
0 1 2
0 1 2
0 1 2
0 1 2
0 1 2
0 1 2
0 1 2
0 1 2
0 1 2
0 1 2
0 1 2
0 1 2
0 1 2
0 1 2
0 1 2
0 1 2
0 1 2
0 1 2
0 1 2
0 1 2
0 1 2
0 1 2
0 1 2
0 1 2
0 1 2
0 1 2
0 1 2
0 1 2
0 1 2
0 1 2
0 1 2
0 1 2
0 1 2
0 1 2
0 1 2
0 1 2
0 1 2
0 1 2
0 1 2
0 1 2
0 1 2
0 1 2
0 1 2
0 1 2
0 1 2
0 1 2
0 1 2
0 1 2
0 1 2
0 1 2
0 1 2
0 1 2
0 1 2
0 1 2
0 1 2
0 1 2
0 1 2
0 1 2
0 1 2
0 1 2
0 1 2
0 1 2
0 1 2
0 1 2
0 1 2
0 1 2
0 1 2
0 1 2
0 1 2
0 1 2
0 1 2
0 1 2
0 1 2
0 1 2
0 1 2
0 1 2
0 1 2
0 1 2
0 1 2
0 1 2
0 1 2
0 1 2
0 1 2
0 1 2
0 1 2
0 1 2
0 1 2
0 1 2
0 1 2
0 1 2
0 1 2
0 1 2
0 1 2
0 1 2
0 1 2
0 1 2
0 1 2
0 1 2
0 1 2
0 1 2
0 1 2
0 1 2
0 1 2
0 1 2
0 1 2
0 1 2
0 1 2
0 1 2
0 1 2
0 1 2
0 1 2
0 1 2
0 1 2
0 1 2
0 1 2
0 1 2
0 1 2
0 1 2
0 1 2
0 1 2
0 1 2
0 1 2
0 1 2
0 1 2
0 1 2
0 1 2
0 1 2
0 1 2
0 1 2
0 1 2
0 1 2
0 1 2
0 1 2
0 1 2
0 1 2
0 1 2
0 1 2
0 1 2
0 1 2
0 1 2
0 1 2
0 1 2
0 1 2
0 1 2
0 1 2
0 1 2
0 1 2
0 1 2
0 1 2
0 1 2
0 1 2
0 1 2
0 1 2
0 1 2
0 1 2
0 1 2
0 1 2
0 1 2
0 1 2
0 1 2
0 1 2
0 1 2
0 1 2
0 1 2
0 1 2
0 1 2
0 1 2
0 1 2
0 1 2
0 1 2
0 1 2
0 1 2
0 1 2
0 1 2
0 1 2
0 1 2
0 1 2
0 1 2
0 1 2
0 1 2
0 1 2
0 1 2
0 1 2
0 1 2
0 1 2
0 1 2
0 1 2
0 1 2
0 1 2
0 1 2
0 1 2
0 1 2
0 1 2
0 1 2
0 1 2

CELL_DATA 500
SCALARS elem_var float 1
LOOKUP_TABLE default 
0
1
2
3
4
5
6
7
8
9
10
11
12
13
14
15
16
17
18
19
20
21
22
23
24
25
26
27
28
29
30
31
32
33
34
35
36
37
38
39
40
41
42
43
44
45
46
47
48
49
50
51
52
53
54
55
56
57
58
59
60
61
62
63
64
65
66
67
68
69
70
71
72
73
74
75
76
77
78
79
80
81
82
83
84
85
86
87
88
89
90
91
92
93
94
95
96
97
98
99
100
101
102
103
104
105
106
107
108
109
110
111
112
113
114
115
116
117
118
119
120
121
122
123
124
125
126
127
128
129
130
131
132
133
134
135
136
137
138
139
140
141
142
143
144
145
146
147
148
149
150
151
152
153
154
155
156
157
158
159
160
161
162
163
164
165
166
167
168
169
170
171
172
173
174
175
176
177
178
179
180
181
182
183
184
185
186
187
188
189
190
191
192
193
194
195
196
197
198
199
200
201
202
203
204
205
206
207
208
209
210
211
212
213
214
215
216
217
218
219
220
221
222
223
224
225
226
227
228
229
230
231
232
233
234
235
236
237
238
239
240
241
242
243
244
245
246
247
248
249
250
251
252
253
254
255
256
257
258
259
260
261
262
263
264
265
266
267
268
269
270
271
272
273
274
275
276
277
278
279
280
281
282
283
284
285
286
287
288
289
290
291
292
293
294
295
296
297
298
299
300
301
302
303
304
305
306
307
308
309
310
311
312
313
314
315
316
317
318
319
320
321
322
323
324
325
326
327
328
329
330
331
332
333
334
335
336
337
338
339
340
341
342
343
344
345
346
347
348
349
350
351
352
353
354
355
356
357
358
359
360
361
362
363
364
365
366
367
368
369
370
371
372
373
374
375
376
377
378
379
380
381
382
383
384
385
386
387
388
389
390
391
392
393
394
395
396
397
398
399
400
401
402
403
404
405
406
407
408
409
410
411
412
413
414
415
416
417
418
419
420
421
422
423
424
425
426
427
428
429
430
431
432
433
434
435
436
437
438
439
440
441
442
443
444
445
446
447
448
449
450
451
452
453
454
455
456
457
458
459
460
461
462
463
464
465
466
467
468
469
470
471
472
473
474
475
476
477
478
479
480
481
482
483
484
485
486
487
488
489
490
491
492
493
494
495
496
497
498
499

SCALARS elem_var2 float 1
LOOKUP_TABLE default 
0
18446744073709551615
18446744073709551614
18446744073709551613
18446744073709551612
18446744073709551611
18446744073709551610
18446744073709551609
18446744073709551608
18446744073709551607
18446744073709551606
18446744073709551605
18446744073709551604
18446744073709551603
18446744073709551602
18446744073709551601
18446744073709551600
18446744073709551599
18446744073709551598
18446744073709551597
18446744073709551596
18446744073709551595
18446744073709551594
18446744073709551593
18446744073709551592
18446744073709551591
18446744073709551590
18446744073709551589
18446744073709551588
18446744073709551587
18446744073709551586
18446744073709551585
18446744073709551584
18446744073709551583
18446744073709551582
18446744073709551581
18446744073709551580
18446744073709551579
18446744073709551578
18446744073709551577
18446744073709551576
18446744073709551575
18446744073709551574
18446744073709551573
18446744073709551572
18446744073709551571
18446744073709551570
18446744073709551569
18446744073709551568
18446744073709551567
18446744073709551566
18446744073709551565
18446744073709551564
18446744073709551563
18446744073709551562
18446744073709551561
18446744073709551560
18446744073709551559
18446744073709551558
18446744073709551557
18446744073709551556
18446744073709551555
18446744073709551554
18446744073709551553
18446744073709551552
18446744073709551551
18446744073709551550
18446744073709551549
18446744073709551548
18446744073709551547
18446744073709551546
18446744073709551545
18446744073709551544
18446744073709551543
18446744073709551542
18446744073709551541
18446744073709551540
18446744073709551539
18446744073709551538
18446744073709551537
18446744073709551536
18446744073709551535
18446744073709551534
18446744073709551533
18446744073709551532
18446744073709551531
18446744073709551530
18446744073709551529
18446744073709551528
18446744073709551527
18446744073709551526
18446744073709551525
18446744073709551524
18446744073709551523
18446744073709551522
18446744073709551521
18446744073709551520
18446744073709551519
18446744073709551518
18446744073709551517
18446744073709551516
18446744073709551515
18446744073709551514
18446744073709551513
18446744073709551512
18446744073709551511
18446744073709551510
18446744073709551509
18446744073709551508
18446744073709551507
18446744073709551506
18446744073709551505
18446744073709551504
18446744073709551503
18446744073709551502
18446744073709551501
18446744073709551500
18446744073709551499
18446744073709551498
18446744073709551497
18446744073709551496
18446744073709551495
18446744073709551494
18446744073709551493
18446744073709551492
18446744073709551491
18446744073709551490
18446744073709551489
18446744073709551488
18446744073709551487
18446744073709551486
18446744073709551485
18446744073709551484
18446744073709551483
18446744073709551482
18446744073709551481
18446744073709551480
18446744073709551479
18446744073709551478
18446744073709551477
18446744073709551476
18446744073709551475
18446744073709551474
18446744073709551473
18446744073709551472
18446744073709551471
18446744073709551470
18446744073709551469
18446744073709551468
18446744073709551467
18446744073709551466
18446744073709551465
18446744073709551464
18446744073709551463
18446744073709551462
18446744073709551461
18446744073709551460
18446744073709551459
18446744073709551458
18446744073709551457
18446744073709551456
18446744073709551455
18446744073709551454
18446744073709551453
18446744073709551452
18446744073709551451
18446744073709551450
18446744073709551449
18446744073709551448
18446744073709551447
18446744073709551446
18446744073709551445
18446744073709551444
18446744073709551443
18446744073709551442
18446744073709551441
18446744073709551440
18446744073709551439
18446744073709551438
18446744073709551437
18446744073709551436
18446744073709551435
18446744073709551434
18446744073709551433
18446744073709551432
18446744073709551431
18446744073709551430
18446744073709551429
18446744073709551428
18446744073709551427
18446744073709551426
18446744073709551425
18446744073709551424
18446744073709551423
18446744073709551422
18446744073709551421
18446744073709551420
18446744073709551419
18446744073709551418
18446744073709551417
18446744073709551416
18446744073709551415
18446744073709551414
18446744073709551413
18446744073709551412
18446744073709551411
18446744073709551410
18446744073709551409
18446744073709551408
18446744073709551407
18446744073709551406
18446744073709551405
18446744073709551404
18446744073709551403
18446744073709551402
18446744073709551401
18446744073709551400
18446744073709551399
18446744073709551398
18446744073709551397
18446744073709551396
18446744073709551395
18446744073709551394
18446744073709551393
18446744073709551392
18446744073709551391
18446744073709551390
18446744073709551389
18446744073709551388
18446744073709551387
18446744073709551386
18446744073709551385
18446744073709551384
18446744073709551383
18446744073709551382
18446744073709551381
18446744073709551380
18446744073709551379
18446744073709551378
18446744073709551377
18446744073709551376
18446744073709551375
18446744073709551374
18446744073709551373
18446744073709551372
18446744073709551371
18446744073709551370
18446744073709551369
18446744073709551368
18446744073709551367
18446744073709551366
18446744073709551365
18446744073709551364
18446744073709551363
18446744073709551362
18446744073709551361
18446744073709551360
18446744073709551359
18446744073709551358
18446744073709551357
18446744073709551356
18446744073709551355
18446744073709551354
18446744073709551353
18446744073709551352
18446744073709551351
18446744073709551350
18446744073709551349
18446744073709551348
18446744073709551347
18446744073709551346
18446744073709551345
18446744073709551344
18446744073709551343
18446744073709551342
18446744073709551341
18446744073709551340
18446744073709551339
18446744073709551338
18446744073709551337
18446744073709551336
18446744073709551335
18446744073709551334
18446744073709551333
18446744073709551332
18446744073709551331
18446744073709551330
18446744073709551329
18446744073709551328
18446744073709551327
18446744073709551326
18446744073709551325
18446744073709551324
18446744073709551323
18446744073709551322
18446744073709551321
18446744073709551320
18446744073709551319
18446744073709551318
18446744073709551317
18446744073709551316
18446744073709551315
18446744073709551314
18446744073709551313
18446744073709551312
18446744073709551311
18446744073709551310
18446744073709551309
18446744073709551308
18446744073709551307
18446744073709551306
18446744073709551305
18446744073709551304
18446744073709551303
18446744073709551302
18446744073709551301
18446744073709551300
18446744073709551299
18446744073709551298
18446744073709551297
18446744073709551296
18446744073709551295
18446744073709551294
18446744073709551293
18446744073709551292
18446744073709551291
18446744073709551290
18446744073709551289
18446744073709551288
18446744073709551287
18446744073709551286
18446744073709551285
18446744073709551284
18446744073709551283
18446744073709551282
18446744073709551281
18446744073709551280
18446744073709551279
18446744073709551278
18446744073709551277
18446744073709551276
18446744073709551275
18446744073709551274
18446744073709551273
18446744073709551272
18446744073709551271
18446744073709551270
18446744073709551269
18446744073709551268
18446744073709551267
18446744073709551266
18446744073709551265
18446744073709551264
18446744073709551263
18446744073709551262
18446744073709551261
18446744073709551260
18446744073709551259
18446744073709551258
18446744073709551257
18446744073709551256
18446744073709551255
18446744073709551254
18446744073709551253
18446744073709551252
18446744073709551251
18446744073709551250
18446744073709551249
18446744073709551248
18446744073709551247
18446744073709551246
18446744073709551245
18446744073709551244
18446744073709551243
18446744073709551242
18446744073709551241
18446744073709551240
18446744073709551239
18446744073709551238
18446744073709551237
18446744073709551236
18446744073709551235
18446744073709551234
18446744073709551233
18446744073709551232
18446744073709551231
18446744073709551230
18446744073709551229
18446744073709551228
18446744073709551227
18446744073709551226
18446744073709551225
18446744073709551224
18446744073709551223
18446744073709551222
18446744073709551221
18446744073709551220
18446744073709551219
18446744073709551218
18446744073709551217
18446744073709551216
18446744073709551215
18446744073709551214
18446744073709551213
18446744073709551212
18446744073709551211
18446744073709551210
18446744073709551209
18446744073709551208
18446744073709551207
18446744073709551206
18446744073709551205
18446744073709551204
18446744073709551203
18446744073709551202
18446744073709551201
18446744073709551200
18446744073709551199
18446744073709551198
18446744073709551197
18446744073709551196
18446744073709551195
18446744073709551194
18446744073709551193
18446744073709551192
18446744073709551191
18446744073709551190
18446744073709551189
18446744073709551188
18446744073709551187
18446744073709551186
18446744073709551185
18446744073709551184
18446744073709551183
18446744073709551182
18446744073709551181
18446744073709551180
18446744073709551179
18446744073709551178
18446744073709551177
18446744073709551176
18446744073709551175
18446744073709551174
18446744073709551173
18446744073709551172
18446744073709551171
18446744073709551170
18446744073709551169
18446744073709551168
18446744073709551167
18446744073709551166
18446744073709551165
18446744073709551164
18446744073709551163
18446744073709551162
18446744073709551161
18446744073709551160
18446744073709551159
18446744073709551158
18446744073709551157
18446744073709551156
18446744073709551155
18446744073709551154
18446744073709551153
18446744073709551152
18446744073709551151
18446744073709551150
18446744073709551149
18446744073709551148
18446744073709551147
18446744073709551146
18446744073709551145
18446744073709551144
18446744073709551143
18446744073709551142
18446744073709551141
18446744073709551140
18446744073709551139
18446744073709551138
18446744073709551137
18446744073709551136
18446744073709551135
18446744073709551134
18446744073709551133
18446744073709551132
18446744073709551131
18446744073709551130
18446744073709551129
18446744073709551128
18446744073709551127
18446744073709551126
18446744073709551125
18446744073709551124
18446744073709551123
18446744073709551122
18446744073709551121
18446744073709551120
18446744073709551119
18446744073709551118