# vtk DataFile Version 2.0
Mesh for Fierro
ASCII
DATASET UNSTRUCTURED_GRID

POINTS 84 float
0 0 0 
0.1 0 0 
0 0.05 0 
0.1 0.05 0 
0 0.1 0 
0.1 0.1 0 
0 0.15 0 
0.1 0.15 0 
0 0.2 0 
0.1 0.2 0 
0 0.25 0 
0.1 0.25 0 
0 0.3 0 
0.1 0.3 0 
0 0.35 0 
0.1 0.35 0 
0 0.4 0 
0.1 0.4 0 
0 0.45 0 
0.1 0.45 0 
0 0.5 0 
0.1 0.5 0 
0 0.55 0 
0.1 0.55 0 
0 0.6 0 
0.1 0.6 0 
0 0.65 0 
0.1 0.65 0 
0 0.7 0 
0.1 0.7 0 
0 0.75 0 
0.1 0.75 0 
0 0.8 0 
0.1 0.8 0 
0 0.85 0 
0.1 0.85 0 
0 0.9 0 
0.1 0.9 0 
0 0.95 0 
0.1 0.95 0 
0 1 0 
0.1 1 0 
0 0 0.1 
0.1 0 0.1 
0 0.05 0.1 
0.1 0.05 0.1 
0 0.1 0.1 
0.1 0.1 0.1 
0 0.15 0.1 
0.1 0.15 0.1 
0 0.2 0.1 
0.1 0.2 0.1 
0 0.25 0.1 
0.1 0.25 0.1 
0 0.3 0.1 
0.1 0.3 0.1 
0 0.35 0.1 
0.1 0.35 0.1 
0 0.4 0.1 
0.1 0.4 0.1 
0 0.45 0.1 
0.1 0.45 0.1 
0 0.5 0.1 
0.1 0.5 0.1 
0 0.55 0.1 
0.1 0.55 0.1 
0 0.6 0.1 
0.1 0.6 0.1 
0 0.65 0.1 
0.1 0.65 0.1 
0 0.7 0.1 
0.1 0.7 0.1 
0 0.75 0.1 
0.1 0.75 0.1 
0 0.8 0.1 
0.1 0.8 0.1 
0 0.85 0.1 
0.1 0.85 0.1 
0 0.9 0.1 
0.1 0.9 0.1 
0 0.95 0.1 
0.1 0.95 0.1 
0 1 0.1 
0.1 1 0.1 

CELLS 20 180
8 0 1 3 2 42 43 45 44 
8 2 3 5 4 44 45 47 46 
8 4 5 7 6 46 47 49 48 
8 6 7 9 8 48 49 51 50 
8 8 9 11 10 50 51 53 52 
8 10 11 13 12 52 53 55 54 
8 12 13 15 14 54 55 57 56 
8 14 15 17 16 56 57 59 58 
8 16 17 19 18 58 59 61 60 
8 18 19 21 20 60 61 63 62 
8 20 21 23 22 62 63 65 64 
8 22 23 25 24 64 65 67 66 
8 24 25 27 26 66 67 69 68 
8 26 27 29 28 68 69 71 70 
8 28 29 31 30 70 71 73 72 
8 30 31 33 32 72 73 75 74 
8 32 33 35 34 74 75 77 76 
8 34 35 37 36 76 77 79 78 
8 36 37 39 38 78 79 81 80 
8 38 39 41 40 80 81 83 82 

CELL_TYPES 20
72
72
72
72
72
72
72
72
72
72
72
72
72
72
72
72
72
72
72
72

POINT_DATA 84
SCALARS point_var float 1
LOOKUP_TABLE default
0
1
2
3
4
5
6
7
8
9
10
11
12
13
14
15
16
17
18
19
20
21
22
23
24
25
26
27
28
29
30
31
32
33
34
35
36
37
38
39
40
41
42
43
44
45
46
47
48
49
50
51
52
53
54
55
56
57
58
59
60
61
62
63
64
65
66
67
68
69
70
71
72
73
74
75
76
77
78
79
80
81
82
83

VECTORS point_vec float
0 1 2
0 1 2
0 1 2
0 1 2
0 1 2
0 1 2
0 1 2
0 1 2
0 1 2
0 1 2
0 1 2
0 1 2
0 1 2
0 1 2
0 1 2
0 1 2
0 1 2
0 1 2
0 1 2
0 1 2
0 1 2
0 1 2
0 1 2
0 1 2
0 1 2
0 1 2
0 1 2
0 1 2
0 1 2
0 1 2
0 1 2
0 1 2
0 1 2
0 1 2
0 1 2
0 1 2
0 1 2
0 1 2
0 1 2
0 1 2
0 1 2
0 1 2
0 1 2
0 1 2
0 1 2
0 1 2
0 1 2
0 1 2
0 1 2
0 1 2
0 1 2
0 1 2
0 1 2
0 1 2
0 1 2
0 1 2
0 1 2
0 1 2
0 1 2
0 1 2
0 1 2
0 1 2
0 1 2
0 1 2
0 1 2
0 1 2
0 1 2
0 1 2
0 1 2
0 1 2
0 1 2
0 1 2
0 1 2
0 1 2
0 1 2
0 1 2
0 1 2
0 1 2
0 1 2
0 1 2
0 1 2
0 1 2
0 1 2
0 1 2

CELL_DATA 20
SCALARS elem_var float 1
LOOKUP_TABLE default 
0
1
2
3
4
5
6
7
8
9
10
11
12
13
14
15
16
17
18
19

SCALARS elem_var2 float 1
LOOKUP_TABLE default 
0
18446744073709551615
18446744073709551614
18446744073709551613
18446744073709551612
18446744073709551611
18446744073709551610
18446744073709551609
18446744073709551608
18446744073709551607
18446744073709551606
18446744073709551605
18446744073709551604
18446744073709551603
18446744073709551602
18446744073709551601
18446744073709551600
18446744073709551599
18446744073709551598
18446744073709551597
