# vtk DataFile Version 2.0
Mesh for Fierro
ASCII
DATASET UNSTRUCTURED_GRID

POINTS 404 float
0 0 0 
0.1 0 0 
0 0.01 0 
0.1 0.01 0 
0 0.02 0 
0.1 0.02 0 
0 0.03 0 
0.1 0.03 0 
0 0.04 0 
0.1 0.04 0 
0 0.05 0 
0.1 0.05 0 
0 0.06 0 
0.1 0.06 0 
0 0.07 0 
0.1 0.07 0 
0 0.08 0 
0.1 0.08 0 
0 0.09 0 
0.1 0.09 0 
0 0.1 0 
0.1 0.1 0 
0 0.11 0 
0.1 0.11 0 
0 0.12 0 
0.1 0.12 0 
0 0.13 0 
0.1 0.13 0 
0 0.14 0 
0.1 0.14 0 
0 0.15 0 
0.1 0.15 0 
0 0.16 0 
0.1 0.16 0 
0 0.17 0 
0.1 0.17 0 
0 0.18 0 
0.1 0.18 0 
0 0.19 0 
0.1 0.19 0 
0 0.2 0 
0.1 0.2 0 
0 0.21 0 
0.1 0.21 0 
0 0.22 0 
0.1 0.22 0 
0 0.23 0 
0.1 0.23 0 
0 0.24 0 
0.1 0.24 0 
0 0.25 0 
0.1 0.25 0 
0 0.26 0 
0.1 0.26 0 
0 0.27 0 
0.1 0.27 0 
0 0.28 0 
0.1 0.28 0 
0 0.29 0 
0.1 0.29 0 
0 0.3 0 
0.1 0.3 0 
0 0.31 0 
0.1 0.31 0 
0 0.32 0 
0.1 0.32 0 
0 0.33 0 
0.1 0.33 0 
0 0.34 0 
0.1 0.34 0 
0 0.35 0 
0.1 0.35 0 
0 0.36 0 
0.1 0.36 0 
0 0.37 0 
0.1 0.37 0 
0 0.38 0 
0.1 0.38 0 
0 0.39 0 
0.1 0.39 0 
0 0.4 0 
0.1 0.4 0 
0 0.41 0 
0.1 0.41 0 
0 0.42 0 
0.1 0.42 0 
0 0.43 0 
0.1 0.43 0 
0 0.44 0 
0.1 0.44 0 
0 0.45 0 
0.1 0.45 0 
0 0.46 0 
0.1 0.46 0 
0 0.47 0 
0.1 0.47 0 
0 0.48 0 
0.1 0.48 0 
0 0.49 0 
0.1 0.49 0 
0 0.5 0 
0.1 0.5 0 
0 0.51 0 
0.1 0.51 0 
0 0.52 0 
0.1 0.52 0 
0 0.53 0 
0.1 0.53 0 
0 0.54 0 
0.1 0.54 0 
0 0.55 0 
0.1 0.55 0 
0 0.56 0 
0.1 0.56 0 
0 0.57 0 
0.1 0.57 0 
0 0.58 0 
0.1 0.58 0 
0 0.59 0 
0.1 0.59 0 
0 0.6 0 
0.1 0.6 0 
0 0.61 0 
0.1 0.61 0 
0 0.62 0 
0.1 0.62 0 
0 0.63 0 
0.1 0.63 0 
0 0.64 0 
0.1 0.64 0 
0 0.65 0 
0.1 0.65 0 
0 0.66 0 
0.1 0.66 0 
0 0.67 0 
0.1 0.67 0 
0 0.68 0 
0.1 0.68 0 
0 0.69 0 
0.1 0.69 0 
0 0.7 0 
0.1 0.7 0 
0 0.71 0 
0.1 0.71 0 
0 0.72 0 
0.1 0.72 0 
0 0.73 0 
0.1 0.73 0 
0 0.74 0 
0.1 0.74 0 
0 0.75 0 
0.1 0.75 0 
0 0.76 0 
0.1 0.76 0 
0 0.77 0 
0.1 0.77 0 
0 0.78 0 
0.1 0.78 0 
0 0.79 0 
0.1 0.79 0 
0 0.8 0 
0.1 0.8 0 
0 0.81 0 
0.1 0.81 0 
0 0.82 0 
0.1 0.82 0 
0 0.83 0 
0.1 0.83 0 
0 0.84 0 
0.1 0.84 0 
0 0.85 0 
0.1 0.85 0 
0 0.86 0 
0.1 0.86 0 
0 0.87 0 
0.1 0.87 0 
0 0.88 0 
0.1 0.88 0 
0 0.89 0 
0.1 0.89 0 
0 0.9 0 
0.1 0.9 0 
0 0.91 0 
0.1 0.91 0 
0 0.92 0 
0.1 0.92 0 
0 0.93 0 
0.1 0.93 0 
0 0.94 0 
0.1 0.94 0 
0 0.95 0 
0.1 0.95 0 
0 0.96 0 
0.1 0.96 0 
0 0.97 0 
0.1 0.97 0 
0 0.98 0 
0.1 0.98 0 
0 0.99 0 
0.1 0.99 0 
0 1 0 
0.1 1 0 
0 0 0.1 
0.1 0 0.1 
0 0.01 0.1 
0.1 0.01 0.1 
0 0.02 0.1 
0.1 0.02 0.1 
0 0.03 0.1 
0.1 0.03 0.1 
0 0.04 0.1 
0.1 0.04 0.1 
0 0.05 0.1 
0.1 0.05 0.1 
0 0.06 0.1 
0.1 0.06 0.1 
0 0.07 0.1 
0.1 0.07 0.1 
0 0.08 0.1 
0.1 0.08 0.1 
0 0.09 0.1 
0.1 0.09 0.1 
0 0.1 0.1 
0.1 0.1 0.1 
0 0.11 0.1 
0.1 0.11 0.1 
0 0.12 0.1 
0.1 0.12 0.1 
0 0.13 0.1 
0.1 0.13 0.1 
0 0.14 0.1 
0.1 0.14 0.1 
0 0.15 0.1 
0.1 0.15 0.1 
0 0.16 0.1 
0.1 0.16 0.1 
0 0.17 0.1 
0.1 0.17 0.1 
0 0.18 0.1 
0.1 0.18 0.1 
0 0.19 0.1 
0.1 0.19 0.1 
0 0.2 0.1 
0.1 0.2 0.1 
0 0.21 0.1 
0.1 0.21 0.1 
0 0.22 0.1 
0.1 0.22 0.1 
0 0.23 0.1 
0.1 0.23 0.1 
0 0.24 0.1 
0.1 0.24 0.1 
0 0.25 0.1 
0.1 0.25 0.1 
0 0.26 0.1 
0.1 0.26 0.1 
0 0.27 0.1 
0.1 0.27 0.1 
0 0.28 0.1 
0.1 0.28 0.1 
0 0.29 0.1 
0.1 0.29 0.1 
0 0.3 0.1 
0.1 0.3 0.1 
0 0.31 0.1 
0.1 0.31 0.1 
0 0.32 0.1 
0.1 0.32 0.1 
0 0.33 0.1 
0.1 0.33 0.1 
0 0.34 0.1 
0.1 0.34 0.1 
0 0.35 0.1 
0.1 0.35 0.1 
0 0.36 0.1 
0.1 0.36 0.1 
0 0.37 0.1 
0.1 0.37 0.1 
0 0.38 0.1 
0.1 0.38 0.1 
0 0.39 0.1 
0.1 0.39 0.1 
0 0.4 0.1 
0.1 0.4 0.1 
0 0.41 0.1 
0.1 0.41 0.1 
0 0.42 0.1 
0.1 0.42 0.1 
0 0.43 0.1 
0.1 0.43 0.1 
0 0.44 0.1 
0.1 0.44 0.1 
0 0.45 0.1 
0.1 0.45 0.1 
0 0.46 0.1 
0.1 0.46 0.1 
0 0.47 0.1 
0.1 0.47 0.1 
0 0.48 0.1 
0.1 0.48 0.1 
0 0.49 0.1 
0.1 0.49 0.1 
0 0.5 0.1 
0.1 0.5 0.1 
0 0.51 0.1 
0.1 0.51 0.1 
0 0.52 0.1 
0.1 0.52 0.1 
0 0.53 0.1 
0.1 0.53 0.1 
0 0.54 0.1 
0.1 0.54 0.1 
0 0.55 0.1 
0.1 0.55 0.1 
0 0.56 0.1 
0.1 0.56 0.1 
0 0.57 0.1 
0.1 0.57 0.1 
0 0.58 0.1 
0.1 0.58 0.1 
0 0.59 0.1 
0.1 0.59 0.1 
0 0.6 0.1 
0.1 0.6 0.1 
0 0.61 0.1 
0.1 0.61 0.1 
0 0.62 0.1 
0.1 0.62 0.1 
0 0.63 0.1 
0.1 0.63 0.1 
0 0.64 0.1 
0.1 0.64 0.1 
0 0.65 0.1 
0.1 0.65 0.1 
0 0.66 0.1 
0.1 0.66 0.1 
0 0.67 0.1 
0.1 0.67 0.1 
0 0.68 0.1 
0.1 0.68 0.1 
0 0.69 0.1 
0.1 0.69 0.1 
0 0.7 0.1 
0.1 0.7 0.1 
0 0.71 0.1 
0.1 0.71 0.1 
0 0.72 0.1 
0.1 0.72 0.1 
0 0.73 0.1 
0.1 0.73 0.1 
0 0.74 0.1 
0.1 0.74 0.1 
0 0.75 0.1 
0.1 0.75 0.1 
0 0.76 0.1 
0.1 0.76 0.1 
0 0.77 0.1 
0.1 0.77 0.1 
0 0.78 0.1 
0.1 0.78 0.1 
0 0.79 0.1 
0.1 0.79 0.1 
0 0.8 0.1 
0.1 0.8 0.1 
0 0.81 0.1 
0.1 0.81 0.1 
0 0.82 0.1 
0.1 0.82 0.1 
0 0.83 0.1 
0.1 0.83 0.1 
0 0.84 0.1 
0.1 0.84 0.1 
0 0.85 0.1 
0.1 0.85 0.1 
0 0.86 0.1 
0.1 0.86 0.1 
0 0.87 0.1 
0.1 0.87 0.1 
0 0.88 0.1 
0.1 0.88 0.1 
0 0.89 0.1 
0.1 0.89 0.1 
0 0.9 0.1 
0.1 0.9 0.1 
0 0.91 0.1 
0.1 0.91 0.1 
0 0.92 0.1 
0.1 0.92 0.1 
0 0.93 0.1 
0.1 0.93 0.1 
0 0.94 0.1 
0.1 0.94 0.1 
0 0.95 0.1 
0.1 0.95 0.1 
0 0.96 0.1 
0.1 0.96 0.1 
0 0.97 0.1 
0.1 0.97 0.1 
0 0.98 0.1 
0.1 0.98 0.1 
0 0.99 0.1 
0.1 0.99 0.1 
0 1 0.1 
0.1 1 0.1 

CELLS 100 900
8 0 1 3 2 202 203 205 204 
8 2 3 5 4 204 205 207 206 
8 4 5 7 6 206 207 209 208 
8 6 7 9 8 208 209 211 210 
8 8 9 11 10 210 211 213 212 
8 10 11 13 12 212 213 215 214 
8 12 13 15 14 214 215 217 216 
8 14 15 17 16 216 217 219 218 
8 16 17 19 18 218 219 221 220 
8 18 19 21 20 220 221 223 222 
8 20 21 23 22 222 223 225 224 
8 22 23 25 24 224 225 227 226 
8 24 25 27 26 226 227 229 228 
8 26 27 29 28 228 229 231 230 
8 28 29 31 30 230 231 233 232 
8 30 31 33 32 232 233 235 234 
8 32 33 35 34 234 235 237 236 
8 34 35 37 36 236 237 239 238 
8 36 37 39 38 238 239 241 240 
8 38 39 41 40 240 241 243 242 
8 40 41 43 42 242 243 245 244 
8 42 43 45 44 244 245 247 246 
8 44 45 47 46 246 247 249 248 
8 46 47 49 48 248 249 251 250 
8 48 49 51 50 250 251 253 252 
8 50 51 53 52 252 253 255 254 
8 52 53 55 54 254 255 257 256 
8 54 55 57 56 256 257 259 258 
8 56 57 59 58 258 259 261 260 
8 58 59 61 60 260 261 263 262 
8 60 61 63 62 262 263 265 264 
8 62 63 65 64 264 265 267 266 
8 64 65 67 66 266 267 269 268 
8 66 67 69 68 268 269 271 270 
8 68 69 71 70 270 271 273 272 
8 70 71 73 72 272 273 275 274 
8 72 73 75 74 274 275 277 276 
8 74 75 77 76 276 277 279 278 
8 76 77 79 78 278 279 281 280 
8 78 79 81 80 280 281 283 282 
8 80 81 83 82 282 283 285 284 
8 82 83 85 84 284 285 287 286 
8 84 85 87 86 286 287 289 288 
8 86 87 89 88 288 289 291 290 
8 88 89 91 90 290 291 293 292 
8 90 91 93 92 292 293 295 294 
8 92 93 95 94 294 295 297 296 
8 94 95 97 96 296 297 299 298 
8 96 97 99 98 298 299 301 300 
8 98 99 101 100 300 301 303 302 
8 100 101 103 102 302 303 305 304 
8 102 103 105 104 304 305 307 306 
8 104 105 107 106 306 307 309 308 
8 106 107 109 108 308 309 311 310 
8 108 109 111 110 310 311 313 312 
8 110 111 113 112 312 313 315 314 
8 112 113 115 114 314 315 317 316 
8 114 115 117 116 316 317 319 318 
8 116 117 119 118 318 319 321 320 
8 118 119 121 120 320 321 323 322 
8 120 121 123 122 322 323 325 324 
8 122 123 125 124 324 325 327 326 
8 124 125 127 126 326 327 329 328 
8 126 127 129 128 328 329 331 330 
8 128 129 131 130 330 331 333 332 
8 130 131 133 132 332 333 335 334 
8 132 133 135 134 334 335 337 336 
8 134 135 137 136 336 337 339 338 
8 136 137 139 138 338 339 341 340 
8 138 139 141 140 340 341 343 342 
8 140 141 143 142 342 343 345 344 
8 142 143 145 144 344 345 347 346 
8 144 145 147 146 346 347 349 348 
8 146 147 149 148 348 349 351 350 
8 148 149 151 150 350 351 353 352 
8 150 151 153 152 352 353 355 354 
8 152 153 155 154 354 355 357 356 
8 154 155 157 156 356 357 359 358 
8 156 157 159 158 358 359 361 360 
8 158 159 161 160 360 361 363 362 
8 160 161 163 162 362 363 365 364 
8 162 163 165 164 364 365 367 366 
8 164 165 167 166 366 367 369 368 
8 166 167 169 168 368 369 371 370 
8 168 169 171 170 370 371 373 372 
8 170 171 173 172 372 373 375 374 
8 172 173 175 174 374 375 377 376 
8 174 175 177 176 376 377 379 378 
8 176 177 179 178 378 379 381 380 
8 178 179 181 180 380 381 383 382 
8 180 181 183 182 382 383 385 384 
8 182 183 185 184 384 385 387 386 
8 184 185 187 186 386 387 389 388 
8 186 187 189 188 388 389 391 390 
8 188 189 191 190 390 391 393 392 
8 190 191 193 192 392 393 395 394 
8 192 193 195 194 394 395 397 396 
8 194 195 197 196 396 397 399 398 
8 196 197 199 198 398 399 401 400 
8 198 199 201 200 400 401 403 402 

CELL_TYPES 100
72
72
72
72
72
72
72
72
72
72
72
72
72
72
72
72
72
72
72
72
72
72
72
72
72
72
72
72
72
72
72
72
72
72
72
72
72
72
72
72
72
72
72
72
72
72
72
72
72
72
72
72
72
72
72
72
72
72
72
72
72
72
72
72
72
72
72
72
72
72
72
72
72
72
72
72
72
72
72
72
72
72
72
72
72
72
72
72
72
72
72
72
72
72
72
72
72
72
72
72

POINT_DATA 404
SCALARS point_var float 1
LOOKUP_TABLE default
0
1
2
3
4
5
6
7
8
9
10
11
12
13
14
15
16
17
18
19
20
21
22
23
24
25
26
27
28
29
30
31
32
33
34
35
36
37
38
39
40
41
42
43
44
45
46
47
48
49
50
51
52
53
54
55
56
57
58
59
60
61
62
63
64
65
66
67
68
69
70
71
72
73
74
75
76
77
78
79
80
81
82
83
84
85
86
87
88
89
90
91
92
93
94
95
96
97
98
99
100
101
102
103
104
105
106
107
108
109
110
111
112
113
114
115
116
117
118
119
120
121
122
123
124
125
126
127
128
129
130
131
132
133
134
135
136
137
138
139
140
141
142
143
144
145
146
147
148
149
150
151
152
153
154
155
156
157
158
159
160
161
162
163
164
165
166
167
168
169
170
171
172
173
174
175
176
177
178
179
180
181
182
183
184
185
186
187
188
189
190
191
192
193
194
195
196
197
198
199
200
201
202
203
204
205
206
207
208
209
210
211
212
213
214
215
216
217
218
219
220
221
222
223
224
225
226
227
228
229
230
231
232
233
234
235
236
237
238
239
240
241
242
243
244
245
246
247
248
249
250
251
252
253
254
255
256
257
258
259
260
261
262
263
264
265
266
267
268
269
270
271
272
273
274
275
276
277
278
279
280
281
282
283
284
285
286
287
288
289
290
291
292
293
294
295
296
297
298
299
300
301
302
303
304
305
306
307
308
309
310
311
312
313
314
315
316
317
318
319
320
321
322
323
324
325
326
327
328
329
330
331
332
333
334
335
336
337
338
339
340
341
342
343
344
345
346
347
348
349
350
351
352
353
354
355
356
357
358
359
360
361
362
363
364
365
366
367
368
369
370
371
372
373
374
375
376
377
378
379
380
381
382
383
384
385
386
387
388
389
390
391
392
393
394
395
396
397
398
399
400
401
402
403

VECTORS point_vec float
0 1 2
0 1 2
0 1 2
0 1 2
0 1 2
0 1 2
0 1 2
0 1 2
0 1 2
0 1 2
0 1 2
0 1 2
0 1 2
0 1 2
0 1 2
0 1 2
0 1 2
0 1 2
0 1 2
0 1 2
0 1 2
0 1 2
0 1 2
0 1 2
0 1 2
0 1 2
0 1 2
0 1 2
0 1 2
0 1 2
0 1 2
0 1 2
0 1 2
0 1 2
0 1 2
0 1 2
0 1 2
0 1 2
0 1 2
0 1 2
0 1 2
0 1 2
0 1 2
0 1 2
0 1 2
0 1 2
0 1 2
0 1 2
0 1 2
0 1 2
0 1 2
0 1 2
0 1 2
0 1 2
0 1 2
0 1 2
0 1 2
0 1 2
0 1 2
0 1 2
0 1 2
0 1 2
0 1 2
0 1 2
0 1 2
0 1 2
0 1 2
0 1 2
0 1 2
0 1 2
0 1 2
0 1 2
0 1 2
0 1 2
0 1 2
0 1 2
0 1 2
0 1 2
0 1 2
0 1 2
0 1 2
0 1 2
0 1 2
0 1 2
0 1 2
0 1 2
0 1 2
0 1 2
0 1 2
0 1 2
0 1 2
0 1 2
0 1 2
0 1 2
0 1 2
0 1 2
0 1 2
0 1 2
0 1 2
0 1 2
0 1 2
0 1 2
0 1 2
0 1 2
0 1 2
0 1 2
0 1 2
0 1 2
0 1 2
0 1 2
0 1 2
0 1 2
0 1 2
0 1 2
0 1 2
0 1 2
0 1 2
0 1 2
0 1 2
0 1 2
0 1 2
0 1 2
0 1 2
0 1 2
0 1 2
0 1 2
0 1 2
0 1 2
0 1 2
0 1 2
0 1 2
0 1 2
0 1 2
0 1 2
0 1 2
0 1 2
0 1 2
0 1 2
0 1 2
0 1 2
0 1 2
0 1 2
0 1 2
0 1 2
0 1 2
0 1 2
0 1 2
0 1 2
0 1 2
0 1 2
0 1 2
0 1 2
0 1 2
0 1 2
0 1 2
0 1 2
0 1 2
0 1 2
0 1 2
0 1 2
0 1 2
0 1 2
0 1 2
0 1 2
0 1 2
0 1 2
0 1 2
0 1 2
0 1 2
0 1 2
0 1 2
0 1 2
0 1 2
0 1 2
0 1 2
0 1 2
0 1 2
0 1 2
0 1 2
0 1 2
0 1 2
0 1 2
0 1 2
0 1 2
0 1 2
0 1 2
0 1 2
0 1 2
0 1 2
0 1 2
0 1 2
0 1 2
0 1 2
0 1 2
0 1 2
0 1 2
0 1 2
0 1 2
0 1 2
0 1 2
0 1 2
0 1 2
0 1 2
0 1 2
0 1 2
0 1 2
0 1 2
0 1 2
0 1 2
0 1 2
0 1 2
0 1 2
0 1 2
0 1 2
0 1 2
0 1 2
0 1 2
0 1 2
0 1 2
0 1 2
0 1 2
0 1 2
0 1 2
0 1 2
0 1 2
0 1 2
0 1 2
0 1 2
0 1 2
0 1 2
0 1 2
0 1 2
0 1 2
0 1 2
0 1 2
0 1 2
0 1 2
0 1 2
0 1 2
0 1 2
0 1 2
0 1 2
0 1 2
0 1 2
0 1 2
0 1 2
0 1 2
0 1 2
0 1 2
0 1 2
0 1 2
0 1 2
0 1 2
0 1 2
0 1 2
0 1 2
0 1 2
0 1 2
0 1 2
0 1 2
0 1 2
0 1 2
0 1 2
0 1 2
0 1 2
0 1 2
0 1 2
0 1 2
0 1 2
0 1 2
0 1 2
0 1 2
0 1 2
0 1 2
0 1 2
0 1 2
0 1 2
0 1 2
0 1 2
0 1 2
0 1 2
0 1 2
0 1 2
0 1 2
0 1 2
0 1 2
0 1 2
0 1 2
0 1 2
0 1 2
0 1 2
0 1 2
0 1 2
0 1 2
0 1 2
0 1 2
0 1 2
0 1 2
0 1 2
0 1 2
0 1 2
0 1 2
0 1 2
0 1 2
0 1 2
0 1 2
0 1 2
0 1 2
0 1 2
0 1 2
0 1 2
0 1 2
0 1 2
0 1 2
0 1 2
0 1 2
0 1 2
0 1 2
0 1 2
0 1 2
0 1 2
0 1 2
0 1 2
0 1 2
0 1 2
0 1 2
0 1 2
0 1 2
0 1 2
0 1 2
0 1 2
0 1 2
0 1 2
0 1 2
0 1 2
0 1 2
0 1 2
0 1 2
0 1 2
0 1 2
0 1 2
0 1 2
0 1 2
0 1 2
0 1 2
0 1 2
0 1 2
0 1 2
0 1 2
0 1 2
0 1 2
0 1 2
0 1 2
0 1 2
0 1 2
0 1 2
0 1 2
0 1 2
0 1 2
0 1 2
0 1 2
0 1 2
0 1 2
0 1 2
0 1 2
0 1 2
0 1 2
0 1 2
0 1 2
0 1 2
0 1 2
0 1 2
0 1 2
0 1 2
0 1 2
0 1 2
0 1 2
0 1 2
0 1 2
0 1 2
0 1 2
0 1 2
0 1 2
0 1 2
0 1 2
0 1 2
0 1 2
0 1 2
0 1 2
0 1 2
0 1 2
0 1 2
0 1 2
0 1 2
0 1 2
0 1 2
0 1 2
0 1 2
0 1 2
0 1 2
0 1 2
0 1 2
0 1 2
0 1 2

CELL_DATA 100
SCALARS elem_var float 1
LOOKUP_TABLE default 
0
1
2
3
4
5
6
7
8
9
10
11
12
13
14
15
16
17
18
19
20
21
22
23
24
25
26
27
28
29
30
31
32
33
34
35
36
37
38
39
40
41
42
43
44
45
46
47
48
49
50
51
52
53
54
55
56
57
58
59
60
61
62
63
64
65
66
67
68
69
70
71
72
73
74
75
76
77
78
79
80
81
82
83
84
85
86
87
88
89
90
91
92
93
94
95
96
97
98
99

SCALARS elem_var2 float 1
LOOKUP_TABLE default 
0
18446744073709551615
18446744073709551614
18446744073709551613
18446744073709551612
18446744073709551611
18446744073709551610
18446744073709551609
18446744073709551608
18446744073709551607
18446744073709551606
18446744073709551605
18446744073709551604
18446744073709551603
18446744073709551602
18446744073709551601
18446744073709551600
18446744073709551599
18446744073709551598
18446744073709551597
18446744073709551596
18446744073709551595
18446744073709551594
18446744073709551593
18446744073709551592
18446744073709551591
18446744073709551590
18446744073709551589
18446744073709551588
18446744073709551587
18446744073709551586
18446744073709551585
18446744073709551584
18446744073709551583
18446744073709551582
18446744073709551581
18446744073709551580
18446744073709551579
18446744073709551578
18446744073709551577
18446744073709551576
18446744073709551575
18446744073709551574
18446744073709551573
18446744073709551572
18446744073709551571
18446744073709551570
18446744073709551569
18446744073709551568
18446744073709551567
18446744073709551566
18446744073709551565
18446744073709551564
18446744073709551563
18446744073709551562
18446744073709551561
18446744073709551560
18446744073709551559
18446744073709551558
18446744073709551557
18446744073709551556
18446744073709551555
18446744073709551554
18446744073709551553
18446744073709551552
18446744073709551551
18446744073709551550
18446744073709551549
18446744073709551548
18446744073709551547
18446744073709551546
18446744073709551545
18446744073709551544
18446744073709551543
18446744073709551542
18446744073709551541
18446744073709551540
18446744073709551539
18446744073709551538
18446744073709551537
18446744073709551536
18446744073709551535
18446744073709551534
18446744073709551533
18446744073709551532
18446744073709551531
18446744073709551530
18446744073709551529
18446744073709551528
18446744073709551527
18446744073709551526
18446744073709551525
18446744073709551524
18446744073709551523
18446744073709551522
18446744073709551521
18446744073709551520
18446744073709551519
18446744073709551518
18446744073709551517
