# vtk DataFile Version 2.0
Mesh for Fierro
ASCII
DATASET UNSTRUCTURED_GRID

POINTS 84 float
0 0 0 
0.05 0 0 
0.1 0 0 
0.15 0 0 
0.2 0 0 
0.25 0 0 
0.3 0 0 
0.35 0 0 
0.4 0 0 
0.45 0 0 
0.5 0 0 
0.55 0 0 
0.6 0 0 
0.65 0 0 
0.7 0 0 
0.75 0 0 
0.8 0 0 
0.85 0 0 
0.9 0 0 
0.95 0 0 
1 0 0 
0 0.1 0 
0.05 0.1 0 
0.1 0.1 0 
0.15 0.1 0 
0.2 0.1 0 
0.25 0.1 0 
0.3 0.1 0 
0.35 0.1 0 
0.4 0.1 0 
0.45 0.1 0 
0.5 0.1 0 
0.55 0.1 0 
0.6 0.1 0 
0.65 0.1 0 
0.7 0.1 0 
0.75 0.1 0 
0.8 0.1 0 
0.85 0.1 0 
0.9 0.1 0 
0.95 0.1 0 
1 0.1 0 
0 0 0.1 
0.05 0 0.1 
0.1 0 0.1 
0.15 0 0.1 
0.2 0 0.1 
0.25 0 0.1 
0.3 0 0.1 
0.35 0 0.1 
0.4 0 0.1 
0.45 0 0.1 
0.5 0 0.1 
0.55 0 0.1 
0.6 0 0.1 
0.65 0 0.1 
0.7 0 0.1 
0.75 0 0.1 
0.8 0 0.1 
0.85 0 0.1 
0.9 0 0.1 
0.95 0 0.1 
1 0 0.1 
0 0.1 0.1 
0.05 0.1 0.1 
0.1 0.1 0.1 
0.15 0.1 0.1 
0.2 0.1 0.1 
0.25 0.1 0.1 
0.3 0.1 0.1 
0.35 0.1 0.1 
0.4 0.1 0.1 
0.45 0.1 0.1 
0.5 0.1 0.1 
0.55 0.1 0.1 
0.6 0.1 0.1 
0.65 0.1 0.1 
0.7 0.1 0.1 
0.75 0.1 0.1 
0.8 0.1 0.1 
0.85 0.1 0.1 
0.9 0.1 0.1 
0.95 0.1 0.1 
1 0.1 0.1 

CELLS 20 180
8 0 1 22 21 42 43 64 63 
8 1 2 23 22 43 44 65 64 
8 2 3 24 23 44 45 66 65 
8 3 4 25 24 45 46 67 66 
8 4 5 26 25 46 47 68 67 
8 5 6 27 26 47 48 69 68 
8 6 7 28 27 48 49 70 69 
8 7 8 29 28 49 50 71 70 
8 8 9 30 29 50 51 72 71 
8 9 10 31 30 51 52 73 72 
8 10 11 32 31 52 53 74 73 
8 11 12 33 32 53 54 75 74 
8 12 13 34 33 54 55 76 75 
8 13 14 35 34 55 56 77 76 
8 14 15 36 35 56 57 78 77 
8 15 16 37 36 57 58 79 78 
8 16 17 38 37 58 59 80 79 
8 17 18 39 38 59 60 81 80 
8 18 19 40 39 60 61 82 81 
8 19 20 41 40 61 62 83 82 

CELL_TYPES 20
72
72
72
72
72
72
72
72
72
72
72
72
72
72
72
72
72
72
72
72

POINT_DATA 84
SCALARS point_var float 1
LOOKUP_TABLE default
0
1
2
3
4
5
6
7
8
9
10
11
12
13
14
15
16
17
18
19
20
21
22
23
24
25
26
27
28
29
30
31
32
33
34
35
36
37
38
39
40
41
42
43
44
45
46
47
48
49
50
51
52
53
54
55
56
57
58
59
60
61
62
63
64
65
66
67
68
69
70
71
72
73
74
75
76
77
78
79
80
81
82
83

VECTORS point_vec float
0 1 2
0 1 2
0 1 2
0 1 2
0 1 2
0 1 2
0 1 2
0 1 2
0 1 2
0 1 2
0 1 2
0 1 2
0 1 2
0 1 2
0 1 2
0 1 2
0 1 2
0 1 2
0 1 2
0 1 2
0 1 2
0 1 2
0 1 2
0 1 2
0 1 2
0 1 2
0 1 2
0 1 2
0 1 2
0 1 2
0 1 2
0 1 2
0 1 2
0 1 2
0 1 2
0 1 2
0 1 2
0 1 2
0 1 2
0 1 2
0 1 2
0 1 2
0 1 2
0 1 2
0 1 2
0 1 2
0 1 2
0 1 2
0 1 2
0 1 2
0 1 2
0 1 2
0 1 2
0 1 2
0 1 2
0 1 2
0 1 2
0 1 2
0 1 2
0 1 2
0 1 2
0 1 2
0 1 2
0 1 2
0 1 2
0 1 2
0 1 2
0 1 2
0 1 2
0 1 2
0 1 2
0 1 2
0 1 2
0 1 2
0 1 2
0 1 2
0 1 2
0 1 2
0 1 2
0 1 2
0 1 2
0 1 2
0 1 2
0 1 2

CELL_DATA 20
SCALARS elem_var float 1
LOOKUP_TABLE default 
0
1
2
3
4
5
6
7
8
9
10
11
12
13
14
15
16
17
18
19

SCALARS elem_var2 float 1
LOOKUP_TABLE default 
0
18446744073709551615
18446744073709551614
18446744073709551613
18446744073709551612
18446744073709551611
18446744073709551610
18446744073709551609
18446744073709551608
18446744073709551607
18446744073709551606
18446744073709551605
18446744073709551604
18446744073709551603
18446744073709551602
18446744073709551601
18446744073709551600
18446744073709551599
18446744073709551598
18446744073709551597
