# vtk DataFile Version 2.0
Mesh for Fierro
ASCII
DATASET UNSTRUCTURED_GRID

POINTS 189 float
0 0 0 
0.05 0 0 
0.1 0 0 
0.15 0 0 
0.2 0 0 
0.25 0 0 
0.3 0 0 
0.35 0 0 
0.4 0 0 
0.45 0 0 
0.5 0 0 
0.55 0 0 
0.6 0 0 
0.65 0 0 
0.7 0 0 
0.75 0 0 
0.8 0 0 
0.85 0 0 
0.9 0 0 
0.95 0 0 
1 0 0 
0 0.05 0 
0.05 0.05 0 
0.1 0.05 0 
0.15 0.05 0 
0.2 0.05 0 
0.25 0.05 0 
0.3 0.05 0 
0.35 0.05 0 
0.4 0.05 0 
0.45 0.05 0 
0.5 0.05 0 
0.55 0.05 0 
0.6 0.05 0 
0.65 0.05 0 
0.7 0.05 0 
0.75 0.05 0 
0.8 0.05 0 
0.85 0.05 0 
0.9 0.05 0 
0.95 0.05 0 
1 0.05 0 
0 0.1 0 
0.05 0.1 0 
0.1 0.1 0 
0.15 0.1 0 
0.2 0.1 0 
0.25 0.1 0 
0.3 0.1 0 
0.35 0.1 0 
0.4 0.1 0 
0.45 0.1 0 
0.5 0.1 0 
0.55 0.1 0 
0.6 0.1 0 
0.65 0.1 0 
0.7 0.1 0 
0.75 0.1 0 
0.8 0.1 0 
0.85 0.1 0 
0.9 0.1 0 
0.95 0.1 0 
1 0.1 0 
0 0 0.05 
0.05 0 0.05 
0.1 0 0.05 
0.15 0 0.05 
0.2 0 0.05 
0.25 0 0.05 
0.3 0 0.05 
0.35 0 0.05 
0.4 0 0.05 
0.45 0 0.05 
0.5 0 0.05 
0.55 0 0.05 
0.6 0 0.05 
0.65 0 0.05 
0.7 0 0.05 
0.75 0 0.05 
0.8 0 0.05 
0.85 0 0.05 
0.9 0 0.05 
0.95 0 0.05 
1 0 0.05 
0 0.05 0.05 
0.05 0.05 0.05 
0.1 0.05 0.05 
0.15 0.05 0.05 
0.2 0.05 0.05 
0.25 0.05 0.05 
0.3 0.05 0.05 
0.35 0.05 0.05 
0.4 0.05 0.05 
0.45 0.05 0.05 
0.5 0.05 0.05 
0.55 0.05 0.05 
0.6 0.05 0.05 
0.65 0.05 0.05 
0.7 0.05 0.05 
0.75 0.05 0.05 
0.8 0.05 0.05 
0.85 0.05 0.05 
0.9 0.05 0.05 
0.95 0.05 0.05 
1 0.05 0.05 
0 0.1 0.05 
0.05 0.1 0.05 
0.1 0.1 0.05 
0.15 0.1 0.05 
0.2 0.1 0.05 
0.25 0.1 0.05 
0.3 0.1 0.05 
0.35 0.1 0.05 
0.4 0.1 0.05 
0.45 0.1 0.05 
0.5 0.1 0.05 
0.55 0.1 0.05 
0.6 0.1 0.05 
0.65 0.1 0.05 
0.7 0.1 0.05 
0.75 0.1 0.05 
0.8 0.1 0.05 
0.85 0.1 0.05 
0.9 0.1 0.05 
0.95 0.1 0.05 
1 0.1 0.05 
0 0 0.1 
0.05 0 0.1 
0.1 0 0.1 
0.15 0 0.1 
0.2 0 0.1 
0.25 0 0.1 
0.3 0 0.1 
0.35 0 0.1 
0.4 0 0.1 
0.45 0 0.1 
0.5 0 0.1 
0.55 0 0.1 
0.6 0 0.1 
0.65 0 0.1 
0.7 0 0.1 
0.75 0 0.1 
0.8 0 0.1 
0.85 0 0.1 
0.9 0 0.1 
0.95 0 0.1 
1 0 0.1 
0 0.05 0.1 
0.05 0.05 0.1 
0.1 0.05 0.1 
0.15 0.05 0.1 
0.2 0.05 0.1 
0.25 0.05 0.1 
0.3 0.05 0.1 
0.35 0.05 0.1 
0.4 0.05 0.1 
0.45 0.05 0.1 
0.5 0.05 0.1 
0.55 0.05 0.1 
0.6 0.05 0.1 
0.65 0.05 0.1 
0.7 0.05 0.1 
0.75 0.05 0.1 
0.8 0.05 0.1 
0.85 0.05 0.1 
0.9 0.05 0.1 
0.95 0.05 0.1 
1 0.05 0.1 
0 0.1 0.1 
0.05 0.1 0.1 
0.1 0.1 0.1 
0.15 0.1 0.1 
0.2 0.1 0.1 
0.25 0.1 0.1 
0.3 0.1 0.1 
0.35 0.1 0.1 
0.4 0.1 0.1 
0.45 0.1 0.1 
0.5 0.1 0.1 
0.55 0.1 0.1 
0.6 0.1 0.1 
0.65 0.1 0.1 
0.7 0.1 0.1 
0.75 0.1 0.1 
0.8 0.1 0.1 
0.85 0.1 0.1 
0.9 0.1 0.1 
0.95 0.1 0.1 
1 0.1 0.1 

CELLS 80 720
8 0 1 22 21 63 64 85 84 
8 1 2 23 22 64 65 86 85 
8 2 3 24 23 65 66 87 86 
8 3 4 25 24 66 67 88 87 
8 4 5 26 25 67 68 89 88 
8 5 6 27 26 68 69 90 89 
8 6 7 28 27 69 70 91 90 
8 7 8 29 28 70 71 92 91 
8 8 9 30 29 71 72 93 92 
8 9 10 31 30 72 73 94 93 
8 10 11 32 31 73 74 95 94 
8 11 12 33 32 74 75 96 95 
8 12 13 34 33 75 76 97 96 
8 13 14 35 34 76 77 98 97 
8 14 15 36 35 77 78 99 98 
8 15 16 37 36 78 79 100 99 
8 16 17 38 37 79 80 101 100 
8 17 18 39 38 80 81 102 101 
8 18 19 40 39 81 82 103 102 
8 19 20 41 40 82 83 104 103 
8 21 22 43 42 84 85 106 105 
8 22 23 44 43 85 86 107 106 
8 23 24 45 44 86 87 108 107 
8 24 25 46 45 87 88 109 108 
8 25 26 47 46 88 89 110 109 
8 26 27 48 47 89 90 111 110 
8 27 28 49 48 90 91 112 111 
8 28 29 50 49 91 92 113 112 
8 29 30 51 50 92 93 114 113 
8 30 31 52 51 93 94 115 114 
8 31 32 53 52 94 95 116 115 
8 32 33 54 53 95 96 117 116 
8 33 34 55 54 96 97 118 117 
8 34 35 56 55 97 98 119 118 
8 35 36 57 56 98 99 120 119 
8 36 37 58 57 99 100 121 120 
8 37 38 59 58 100 101 122 121 
8 38 39 60 59 101 102 123 122 
8 39 40 61 60 102 103 124 123 
8 40 41 62 61 103 104 125 124 
8 63 64 85 84 126 127 148 147 
8 64 65 86 85 127 128 149 148 
8 65 66 87 86 128 129 150 149 
8 66 67 88 87 129 130 151 150 
8 67 68 89 88 130 131 152 151 
8 68 69 90 89 131 132 153 152 
8 69 70 91 90 132 133 154 153 
8 70 71 92 91 133 134 155 154 
8 71 72 93 92 134 135 156 155 
8 72 73 94 93 135 136 157 156 
8 73 74 95 94 136 137 158 157 
8 74 75 96 95 137 138 159 158 
8 75 76 97 96 138 139 160 159 
8 76 77 98 97 139 140 161 160 
8 77 78 99 98 140 141 162 161 
8 78 79 100 99 141 142 163 162 
8 79 80 101 100 142 143 164 163 
8 80 81 102 101 143 144 165 164 
8 81 82 103 102 144 145 166 165 
8 82 83 104 103 145 146 167 166 
8 84 85 106 105 147 148 169 168 
8 85 86 107 106 148 149 170 169 
8 86 87 108 107 149 150 171 170 
8 87 88 109 108 150 151 172 171 
8 88 89 110 109 151 152 173 172 
8 89 90 111 110 152 153 174 173 
8 90 91 112 111 153 154 175 174 
8 91 92 113 112 154 155 176 175 
8 92 93 114 113 155 156 177 176 
8 93 94 115 114 156 157 178 177 
8 94 95 116 115 157 158 179 178 
8 95 96 117 116 158 159 180 179 
8 96 97 118 117 159 160 181 180 
8 97 98 119 118 160 161 182 181 
8 98 99 120 119 161 162 183 182 
8 99 100 121 120 162 163 184 183 
8 100 101 122 121 163 164 185 184 
8 101 102 123 122 164 165 186 185 
8 102 103 124 123 165 166 187 186 
8 103 104 125 124 166 167 188 187 

CELL_TYPES 80
72
72
72
72
72
72
72
72
72
72
72
72
72
72
72
72
72
72
72
72
72
72
72
72
72
72
72
72
72
72
72
72
72
72
72
72
72
72
72
72
72
72
72
72
72
72
72
72
72
72
72
72
72
72
72
72
72
72
72
72
72
72
72
72
72
72
72
72
72
72
72
72
72
72
72
72
72
72
72
72

POINT_DATA 189
SCALARS point_var float 1
LOOKUP_TABLE default
0
1
2
3
4
5
6
7
8
9
10
11
12
13
14
15
16
17
18
19
20
21
22
23
24
25
26
27
28
29
30
31
32
33
34
35
36
37
38
39
40
41
42
43
44
45
46
47
48
49
50
51
52
53
54
55
56
57
58
59
60
61
62
63
64
65
66
67
68
69
70
71
72
73
74
75
76
77
78
79
80
81
82
83
84
85
86
87
88
89
90
91
92
93
94
95
96
97
98
99
100
101
102
103
104
105
106
107
108
109
110
111
112
113
114
115
116
117
118
119
120
121
122
123
124
125
126
127
128
129
130
131
132
133
134
135
136
137
138
139
140
141
142
143
144
145
146
147
148
149
150
151
152
153
154
155
156
157
158
159
160
161
162
163
164
165
166
167
168
169
170
171
172
173
174
175
176
177
178
179
180
181
182
183
184
185
186
187
188

VECTORS point_vec float
0 1 2
0 1 2
0 1 2
0 1 2
0 1 2
0 1 2
0 1 2
0 1 2
0 1 2
0 1 2
0 1 2
0 1 2
0 1 2
0 1 2
0 1 2
0 1 2
0 1 2
0 1 2
0 1 2
0 1 2
0 1 2
0 1 2
0 1 2
0 1 2
0 1 2
0 1 2
0 1 2
0 1 2
0 1 2
0 1 2
0 1 2
0 1 2
0 1 2
0 1 2
0 1 2
0 1 2
0 1 2
0 1 2
0 1 2
0 1 2
0 1 2
0 1 2
0 1 2
0 1 2
0 1 2
0 1 2
0 1 2
0 1 2
0 1 2
0 1 2
0 1 2
0 1 2
0 1 2
0 1 2
0 1 2
0 1 2
0 1 2
0 1 2
0 1 2
0 1 2
0 1 2
0 1 2
0 1 2
0 1 2
0 1 2
0 1 2
0 1 2
0 1 2
0 1 2
0 1 2
0 1 2
0 1 2
0 1 2
0 1 2
0 1 2
0 1 2
0 1 2
0 1 2
0 1 2
0 1 2
0 1 2
0 1 2
0 1 2
0 1 2
0 1 2
0 1 2
0 1 2
0 1 2
0 1 2
0 1 2
0 1 2
0 1 2
0 1 2
0 1 2
0 1 2
0 1 2
0 1 2
0 1 2
0 1 2
0 1 2
0 1 2
0 1 2
0 1 2
0 1 2
0 1 2
0 1 2
0 1 2
0 1 2
0 1 2
0 1 2
0 1 2
0 1 2
0 1 2
0 1 2
0 1 2
0 1 2
0 1 2
0 1 2
0 1 2
0 1 2
0 1 2
0 1 2
0 1 2
0 1 2
0 1 2
0 1 2
0 1 2
0 1 2
0 1 2
0 1 2
0 1 2
0 1 2
0 1 2
0 1 2
0 1 2
0 1 2
0 1 2
0 1 2
0 1 2
0 1 2
0 1 2
0 1 2
0 1 2
0 1 2
0 1 2
0 1 2
0 1 2
0 1 2
0 1 2
0 1 2
0 1 2
0 1 2
0 1 2
0 1 2
0 1 2
0 1 2
0 1 2
0 1 2
0 1 2
0 1 2
0 1 2
0 1 2
0 1 2
0 1 2
0 1 2
0 1 2
0 1 2
0 1 2
0 1 2
0 1 2
0 1 2
0 1 2
0 1 2
0 1 2
0 1 2
0 1 2
0 1 2
0 1 2
0 1 2
0 1 2
0 1 2
0 1 2
0 1 2
0 1 2
0 1 2
0 1 2
0 1 2
0 1 2
0 1 2

CELL_DATA 80
SCALARS elem_var float 1
LOOKUP_TABLE default 
0
1
2
3
4
5
6
7
8
9
10
11
12
13
14
15
16
17
18
19
20
21
22
23
24
25
26
27
28
29
30
31
32
33
34
35
36
37
38
39
40
41
42
43
44
45
46
47
48
49
50
51
52
53
54
55
56
57
58
59
60
61
62
63
64
65
66
67
68
69
70
71
72
73
74
75
76
77
78
79

SCALARS elem_var2 float 1
LOOKUP_TABLE default 
0
18446744073709551615
18446744073709551614
18446744073709551613
18446744073709551612
18446744073709551611
18446744073709551610
18446744073709551609
18446744073709551608
18446744073709551607
18446744073709551606
18446744073709551605
18446744073709551604
18446744073709551603
18446744073709551602
18446744073709551601
18446744073709551600
18446744073709551599
18446744073709551598
18446744073709551597
18446744073709551596
18446744073709551595
18446744073709551594
18446744073709551593
18446744073709551592
18446744073709551591
18446744073709551590
18446744073709551589
18446744073709551588
18446744073709551587
18446744073709551586
18446744073709551585
18446744073709551584
18446744073709551583
18446744073709551582
18446744073709551581
18446744073709551580
18446744073709551579
18446744073709551578
18446744073709551577
18446744073709551576
18446744073709551575
18446744073709551574
18446744073709551573
18446744073709551572
18446744073709551571
18446744073709551570
18446744073709551569
18446744073709551568
18446744073709551567
18446744073709551566
18446744073709551565
18446744073709551564
18446744073709551563
18446744073709551562
18446744073709551561
18446744073709551560
18446744073709551559
18446744073709551558
18446744073709551557
18446744073709551556
18446744073709551555
18446744073709551554
18446744073709551553
18446744073709551552
18446744073709551551
18446744073709551550
18446744073709551549
18446744073709551548
18446744073709551547
18446744073709551546
18446744073709551545
18446744073709551544
18446744073709551543
18446744073709551542
18446744073709551541
18446744073709551540
18446744073709551539
18446744073709551538
18446744073709551537
