# vtk DataFile Version 2.0
Mesh for Fierro
ASCII
DATASET UNSTRUCTURED_GRID

POINTS 909 float
0 0 0 
0.01 0 0 
0.02 0 0 
0.03 0 0 
0.04 0 0 
0.05 0 0 
0.06 0 0 
0.07 0 0 
0.08 0 0 
0.09 0 0 
0.1 0 0 
0.11 0 0 
0.12 0 0 
0.13 0 0 
0.14 0 0 
0.15 0 0 
0.16 0 0 
0.17 0 0 
0.18 0 0 
0.19 0 0 
0.2 0 0 
0.21 0 0 
0.22 0 0 
0.23 0 0 
0.24 0 0 
0.25 0 0 
0.26 0 0 
0.27 0 0 
0.28 0 0 
0.29 0 0 
0.3 0 0 
0.31 0 0 
0.32 0 0 
0.33 0 0 
0.34 0 0 
0.35 0 0 
0.36 0 0 
0.37 0 0 
0.38 0 0 
0.39 0 0 
0.4 0 0 
0.41 0 0 
0.42 0 0 
0.43 0 0 
0.44 0 0 
0.45 0 0 
0.46 0 0 
0.47 0 0 
0.48 0 0 
0.49 0 0 
0.5 0 0 
0.51 0 0 
0.52 0 0 
0.53 0 0 
0.54 0 0 
0.55 0 0 
0.56 0 0 
0.57 0 0 
0.58 0 0 
0.59 0 0 
0.6 0 0 
0.61 0 0 
0.62 0 0 
0.63 0 0 
0.64 0 0 
0.65 0 0 
0.66 0 0 
0.67 0 0 
0.68 0 0 
0.69 0 0 
0.7 0 0 
0.71 0 0 
0.72 0 0 
0.73 0 0 
0.74 0 0 
0.75 0 0 
0.76 0 0 
0.77 0 0 
0.78 0 0 
0.79 0 0 
0.8 0 0 
0.81 0 0 
0.82 0 0 
0.83 0 0 
0.84 0 0 
0.85 0 0 
0.86 0 0 
0.87 0 0 
0.88 0 0 
0.89 0 0 
0.9 0 0 
0.91 0 0 
0.92 0 0 
0.93 0 0 
0.94 0 0 
0.95 0 0 
0.96 0 0 
0.97 0 0 
0.98 0 0 
0.99 0 0 
1 0 0 
0 0.05 0 
0.01 0.05 0 
0.02 0.05 0 
0.03 0.05 0 
0.04 0.05 0 
0.05 0.05 0 
0.06 0.05 0 
0.07 0.05 0 
0.08 0.05 0 
0.09 0.05 0 
0.1 0.05 0 
0.11 0.05 0 
0.12 0.05 0 
0.13 0.05 0 
0.14 0.05 0 
0.15 0.05 0 
0.16 0.05 0 
0.17 0.05 0 
0.18 0.05 0 
0.19 0.05 0 
0.2 0.05 0 
0.21 0.05 0 
0.22 0.05 0 
0.23 0.05 0 
0.24 0.05 0 
0.25 0.05 0 
0.26 0.05 0 
0.27 0.05 0 
0.28 0.05 0 
0.29 0.05 0 
0.3 0.05 0 
0.31 0.05 0 
0.32 0.05 0 
0.33 0.05 0 
0.34 0.05 0 
0.35 0.05 0 
0.36 0.05 0 
0.37 0.05 0 
0.38 0.05 0 
0.39 0.05 0 
0.4 0.05 0 
0.41 0.05 0 
0.42 0.05 0 
0.43 0.05 0 
0.44 0.05 0 
0.45 0.05 0 
0.46 0.05 0 
0.47 0.05 0 
0.48 0.05 0 
0.49 0.05 0 
0.5 0.05 0 
0.51 0.05 0 
0.52 0.05 0 
0.53 0.05 0 
0.54 0.05 0 
0.55 0.05 0 
0.56 0.05 0 
0.57 0.05 0 
0.58 0.05 0 
0.59 0.05 0 
0.6 0.05 0 
0.61 0.05 0 
0.62 0.05 0 
0.63 0.05 0 
0.64 0.05 0 
0.65 0.05 0 
0.66 0.05 0 
0.67 0.05 0 
0.68 0.05 0 
0.69 0.05 0 
0.7 0.05 0 
0.71 0.05 0 
0.72 0.05 0 
0.73 0.05 0 
0.74 0.05 0 
0.75 0.05 0 
0.76 0.05 0 
0.77 0.05 0 
0.78 0.05 0 
0.79 0.05 0 
0.8 0.05 0 
0.81 0.05 0 
0.82 0.05 0 
0.83 0.05 0 
0.84 0.05 0 
0.85 0.05 0 
0.86 0.05 0 
0.87 0.05 0 
0.88 0.05 0 
0.89 0.05 0 
0.9 0.05 0 
0.91 0.05 0 
0.92 0.05 0 
0.93 0.05 0 
0.94 0.05 0 
0.95 0.05 0 
0.96 0.05 0 
0.97 0.05 0 
0.98 0.05 0 
0.99 0.05 0 
1 0.05 0 
0 0.1 0 
0.01 0.1 0 
0.02 0.1 0 
0.03 0.1 0 
0.04 0.1 0 
0.05 0.1 0 
0.06 0.1 0 
0.07 0.1 0 
0.08 0.1 0 
0.09 0.1 0 
0.1 0.1 0 
0.11 0.1 0 
0.12 0.1 0 
0.13 0.1 0 
0.14 0.1 0 
0.15 0.1 0 
0.16 0.1 0 
0.17 0.1 0 
0.18 0.1 0 
0.19 0.1 0 
0.2 0.1 0 
0.21 0.1 0 
0.22 0.1 0 
0.23 0.1 0 
0.24 0.1 0 
0.25 0.1 0 
0.26 0.1 0 
0.27 0.1 0 
0.28 0.1 0 
0.29 0.1 0 
0.3 0.1 0 
0.31 0.1 0 
0.32 0.1 0 
0.33 0.1 0 
0.34 0.1 0 
0.35 0.1 0 
0.36 0.1 0 
0.37 0.1 0 
0.38 0.1 0 
0.39 0.1 0 
0.4 0.1 0 
0.41 0.1 0 
0.42 0.1 0 
0.43 0.1 0 
0.44 0.1 0 
0.45 0.1 0 
0.46 0.1 0 
0.47 0.1 0 
0.48 0.1 0 
0.49 0.1 0 
0.5 0.1 0 
0.51 0.1 0 
0.52 0.1 0 
0.53 0.1 0 
0.54 0.1 0 
0.55 0.1 0 
0.56 0.1 0 
0.57 0.1 0 
0.58 0.1 0 
0.59 0.1 0 
0.6 0.1 0 
0.61 0.1 0 
0.62 0.1 0 
0.63 0.1 0 
0.64 0.1 0 
0.65 0.1 0 
0.66 0.1 0 
0.67 0.1 0 
0.68 0.1 0 
0.69 0.1 0 
0.7 0.1 0 
0.71 0.1 0 
0.72 0.1 0 
0.73 0.1 0 
0.74 0.1 0 
0.75 0.1 0 
0.76 0.1 0 
0.77 0.1 0 
0.78 0.1 0 
0.79 0.1 0 
0.8 0.1 0 
0.81 0.1 0 
0.82 0.1 0 
0.83 0.1 0 
0.84 0.1 0 
0.85 0.1 0 
0.86 0.1 0 
0.87 0.1 0 
0.88 0.1 0 
0.89 0.1 0 
0.9 0.1 0 
0.91 0.1 0 
0.92 0.1 0 
0.93 0.1 0 
0.94 0.1 0 
0.95 0.1 0 
0.96 0.1 0 
0.97 0.1 0 
0.98 0.1 0 
0.99 0.1 0 
1 0.1 0 
0 0 0.05 
0.01 0 0.05 
0.02 0 0.05 
0.03 0 0.05 
0.04 0 0.05 
0.05 0 0.05 
0.06 0 0.05 
0.07 0 0.05 
0.08 0 0.05 
0.09 0 0.05 
0.1 0 0.05 
0.11 0 0.05 
0.12 0 0.05 
0.13 0 0.05 
0.14 0 0.05 
0.15 0 0.05 
0.16 0 0.05 
0.17 0 0.05 
0.18 0 0.05 
0.19 0 0.05 
0.2 0 0.05 
0.21 0 0.05 
0.22 0 0.05 
0.23 0 0.05 
0.24 0 0.05 
0.25 0 0.05 
0.26 0 0.05 
0.27 0 0.05 
0.28 0 0.05 
0.29 0 0.05 
0.3 0 0.05 
0.31 0 0.05 
0.32 0 0.05 
0.33 0 0.05 
0.34 0 0.05 
0.35 0 0.05 
0.36 0 0.05 
0.37 0 0.05 
0.38 0 0.05 
0.39 0 0.05 
0.4 0 0.05 
0.41 0 0.05 
0.42 0 0.05 
0.43 0 0.05 
0.44 0 0.05 
0.45 0 0.05 
0.46 0 0.05 
0.47 0 0.05 
0.48 0 0.05 
0.49 0 0.05 
0.5 0 0.05 
0.51 0 0.05 
0.52 0 0.05 
0.53 0 0.05 
0.54 0 0.05 
0.55 0 0.05 
0.56 0 0.05 
0.57 0 0.05 
0.58 0 0.05 
0.59 0 0.05 
0.6 0 0.05 
0.61 0 0.05 
0.62 0 0.05 
0.63 0 0.05 
0.64 0 0.05 
0.65 0 0.05 
0.66 0 0.05 
0.67 0 0.05 
0.68 0 0.05 
0.69 0 0.05 
0.7 0 0.05 
0.71 0 0.05 
0.72 0 0.05 
0.73 0 0.05 
0.74 0 0.05 
0.75 0 0.05 
0.76 0 0.05 
0.77 0 0.05 
0.78 0 0.05 
0.79 0 0.05 
0.8 0 0.05 
0.81 0 0.05 
0.82 0 0.05 
0.83 0 0.05 
0.84 0 0.05 
0.85 0 0.05 
0.86 0 0.05 
0.87 0 0.05 
0.88 0 0.05 
0.89 0 0.05 
0.9 0 0.05 
0.91 0 0.05 
0.92 0 0.05 
0.93 0 0.05 
0.94 0 0.05 
0.95 0 0.05 
0.96 0 0.05 
0.97 0 0.05 
0.98 0 0.05 
0.99 0 0.05 
1 0 0.05 
0 0.05 0.05 
0.01 0.05 0.05 
0.02 0.05 0.05 
0.03 0.05 0.05 
0.04 0.05 0.05 
0.05 0.05 0.05 
0.06 0.05 0.05 
0.07 0.05 0.05 
0.08 0.05 0.05 
0.09 0.05 0.05 
0.1 0.05 0.05 
0.11 0.05 0.05 
0.12 0.05 0.05 
0.13 0.05 0.05 
0.14 0.05 0.05 
0.15 0.05 0.05 
0.16 0.05 0.05 
0.17 0.05 0.05 
0.18 0.05 0.05 
0.19 0.05 0.05 
0.2 0.05 0.05 
0.21 0.05 0.05 
0.22 0.05 0.05 
0.23 0.05 0.05 
0.24 0.05 0.05 
0.25 0.05 0.05 
0.26 0.05 0.05 
0.27 0.05 0.05 
0.28 0.05 0.05 
0.29 0.05 0.05 
0.3 0.05 0.05 
0.31 0.05 0.05 
0.32 0.05 0.05 
0.33 0.05 0.05 
0.34 0.05 0.05 
0.35 0.05 0.05 
0.36 0.05 0.05 
0.37 0.05 0.05 
0.38 0.05 0.05 
0.39 0.05 0.05 
0.4 0.05 0.05 
0.41 0.05 0.05 
0.42 0.05 0.05 
0.43 0.05 0.05 
0.44 0.05 0.05 
0.45 0.05 0.05 
0.46 0.05 0.05 
0.47 0.05 0.05 
0.48 0.05 0.05 
0.49 0.05 0.05 
0.5 0.05 0.05 
0.51 0.05 0.05 
0.52 0.05 0.05 
0.53 0.05 0.05 
0.54 0.05 0.05 
0.55 0.05 0.05 
0.56 0.05 0.05 
0.57 0.05 0.05 
0.58 0.05 0.05 
0.59 0.05 0.05 
0.6 0.05 0.05 
0.61 0.05 0.05 
0.62 0.05 0.05 
0.63 0.05 0.05 
0.64 0.05 0.05 
0.65 0.05 0.05 
0.66 0.05 0.05 
0.67 0.05 0.05 
0.68 0.05 0.05 
0.69 0.05 0.05 
0.7 0.05 0.05 
0.71 0.05 0.05 
0.72 0.05 0.05 
0.73 0.05 0.05 
0.74 0.05 0.05 
0.75 0.05 0.05 
0.76 0.05 0.05 
0.77 0.05 0.05 
0.78 0.05 0.05 
0.79 0.05 0.05 
0.8 0.05 0.05 
0.81 0.05 0.05 
0.82 0.05 0.05 
0.83 0.05 0.05 
0.84 0.05 0.05 
0.85 0.05 0.05 
0.86 0.05 0.05 
0.87 0.05 0.05 
0.88 0.05 0.05 
0.89 0.05 0.05 
0.9 0.05 0.05 
0.91 0.05 0.05 
0.92 0.05 0.05 
0.93 0.05 0.05 
0.94 0.05 0.05 
0.95 0.05 0.05 
0.96 0.05 0.05 
0.97 0.05 0.05 
0.98 0.05 0.05 
0.99 0.05 0.05 
1 0.05 0.05 
0 0.1 0.05 
0.01 0.1 0.05 
0.02 0.1 0.05 
0.03 0.1 0.05 
0.04 0.1 0.05 
0.05 0.1 0.05 
0.06 0.1 0.05 
0.07 0.1 0.05 
0.08 0.1 0.05 
0.09 0.1 0.05 
0.1 0.1 0.05 
0.11 0.1 0.05 
0.12 0.1 0.05 
0.13 0.1 0.05 
0.14 0.1 0.05 
0.15 0.1 0.05 
0.16 0.1 0.05 
0.17 0.1 0.05 
0.18 0.1 0.05 
0.19 0.1 0.05 
0.2 0.1 0.05 
0.21 0.1 0.05 
0.22 0.1 0.05 
0.23 0.1 0.05 
0.24 0.1 0.05 
0.25 0.1 0.05 
0.26 0.1 0.05 
0.27 0.1 0.05 
0.28 0.1 0.05 
0.29 0.1 0.05 
0.3 0.1 0.05 
0.31 0.1 0.05 
0.32 0.1 0.05 
0.33 0.1 0.05 
0.34 0.1 0.05 
0.35 0.1 0.05 
0.36 0.1 0.05 
0.37 0.1 0.05 
0.38 0.1 0.05 
0.39 0.1 0.05 
0.4 0.1 0.05 
0.41 0.1 0.05 
0.42 0.1 0.05 
0.43 0.1 0.05 
0.44 0.1 0.05 
0.45 0.1 0.05 
0.46 0.1 0.05 
0.47 0.1 0.05 
0.48 0.1 0.05 
0.49 0.1 0.05 
0.5 0.1 0.05 
0.51 0.1 0.05 
0.52 0.1 0.05 
0.53 0.1 0.05 
0.54 0.1 0.05 
0.55 0.1 0.05 
0.56 0.1 0.05 
0.57 0.1 0.05 
0.58 0.1 0.05 
0.59 0.1 0.05 
0.6 0.1 0.05 
0.61 0.1 0.05 
0.62 0.1 0.05 
0.63 0.1 0.05 
0.64 0.1 0.05 
0.65 0.1 0.05 
0.66 0.1 0.05 
0.67 0.1 0.05 
0.68 0.1 0.05 
0.69 0.1 0.05 
0.7 0.1 0.05 
0.71 0.1 0.05 
0.72 0.1 0.05 
0.73 0.1 0.05 
0.74 0.1 0.05 
0.75 0.1 0.05 
0.76 0.1 0.05 
0.77 0.1 0.05 
0.78 0.1 0.05 
0.79 0.1 0.05 
0.8 0.1 0.05 
0.81 0.1 0.05 
0.82 0.1 0.05 
0.83 0.1 0.05 
0.84 0.1 0.05 
0.85 0.1 0.05 
0.86 0.1 0.05 
0.87 0.1 0.05 
0.88 0.1 0.05 
0.89 0.1 0.05 
0.9 0.1 0.05 
0.91 0.1 0.05 
0.92 0.1 0.05 
0.93 0.1 0.05 
0.94 0.1 0.05 
0.95 0.1 0.05 
0.96 0.1 0.05 
0.97 0.1 0.05 
0.98 0.1 0.05 
0.99 0.1 0.05 
1 0.1 0.05 
0 0 0.1 
0.01 0 0.1 
0.02 0 0.1 
0.03 0 0.1 
0.04 0 0.1 
0.05 0 0.1 
0.06 0 0.1 
0.07 0 0.1 
0.08 0 0.1 
0.09 0 0.1 
0.1 0 0.1 
0.11 0 0.1 
0.12 0 0.1 
0.13 0 0.1 
0.14 0 0.1 
0.15 0 0.1 
0.16 0 0.1 
0.17 0 0.1 
0.18 0 0.1 
0.19 0 0.1 
0.2 0 0.1 
0.21 0 0.1 
0.22 0 0.1 
0.23 0 0.1 
0.24 0 0.1 
0.25 0 0.1 
0.26 0 0.1 
0.27 0 0.1 
0.28 0 0.1 
0.29 0 0.1 
0.3 0 0.1 
0.31 0 0.1 
0.32 0 0.1 
0.33 0 0.1 
0.34 0 0.1 
0.35 0 0.1 
0.36 0 0.1 
0.37 0 0.1 
0.38 0 0.1 
0.39 0 0.1 
0.4 0 0.1 
0.41 0 0.1 
0.42 0 0.1 
0.43 0 0.1 
0.44 0 0.1 
0.45 0 0.1 
0.46 0 0.1 
0.47 0 0.1 
0.48 0 0.1 
0.49 0 0.1 
0.5 0 0.1 
0.51 0 0.1 
0.52 0 0.1 
0.53 0 0.1 
0.54 0 0.1 
0.55 0 0.1 
0.56 0 0.1 
0.57 0 0.1 
0.58 0 0.1 
0.59 0 0.1 
0.6 0 0.1 
0.61 0 0.1 
0.62 0 0.1 
0.63 0 0.1 
0.64 0 0.1 
0.65 0 0.1 
0.66 0 0.1 
0.67 0 0.1 
0.68 0 0.1 
0.69 0 0.1 
0.7 0 0.1 
0.71 0 0.1 
0.72 0 0.1 
0.73 0 0.1 
0.74 0 0.1 
0.75 0 0.1 
0.76 0 0.1 
0.77 0 0.1 
0.78 0 0.1 
0.79 0 0.1 
0.8 0 0.1 
0.81 0 0.1 
0.82 0 0.1 
0.83 0 0.1 
0.84 0 0.1 
0.85 0 0.1 
0.86 0 0.1 
0.87 0 0.1 
0.88 0 0.1 
0.89 0 0.1 
0.9 0 0.1 
0.91 0 0.1 
0.92 0 0.1 
0.93 0 0.1 
0.94 0 0.1 
0.95 0 0.1 
0.96 0 0.1 
0.97 0 0.1 
0.98 0 0.1 
0.99 0 0.1 
1 0 0.1 
0 0.05 0.1 
0.01 0.05 0.1 
0.02 0.05 0.1 
0.03 0.05 0.1 
0.04 0.05 0.1 
0.05 0.05 0.1 
0.06 0.05 0.1 
0.07 0.05 0.1 
0.08 0.05 0.1 
0.09 0.05 0.1 
0.1 0.05 0.1 
0.11 0.05 0.1 
0.12 0.05 0.1 
0.13 0.05 0.1 
0.14 0.05 0.1 
0.15 0.05 0.1 
0.16 0.05 0.1 
0.17 0.05 0.1 
0.18 0.05 0.1 
0.19 0.05 0.1 
0.2 0.05 0.1 
0.21 0.05 0.1 
0.22 0.05 0.1 
0.23 0.05 0.1 
0.24 0.05 0.1 
0.25 0.05 0.1 
0.26 0.05 0.1 
0.27 0.05 0.1 
0.28 0.05 0.1 
0.29 0.05 0.1 
0.3 0.05 0.1 
0.31 0.05 0.1 
0.32 0.05 0.1 
0.33 0.05 0.1 
0.34 0.05 0.1 
0.35 0.05 0.1 
0.36 0.05 0.1 
0.37 0.05 0.1 
0.38 0.05 0.1 
0.39 0.05 0.1 
0.4 0.05 0.1 
0.41 0.05 0.1 
0.42 0.05 0.1 
0.43 0.05 0.1 
0.44 0.05 0.1 
0.45 0.05 0.1 
0.46 0.05 0.1 
0.47 0.05 0.1 
0.48 0.05 0.1 
0.49 0.05 0.1 
0.5 0.05 0.1 
0.51 0.05 0.1 
0.52 0.05 0.1 
0.53 0.05 0.1 
0.54 0.05 0.1 
0.55 0.05 0.1 
0.56 0.05 0.1 
0.57 0.05 0.1 
0.58 0.05 0.1 
0.59 0.05 0.1 
0.6 0.05 0.1 
0.61 0.05 0.1 
0.62 0.05 0.1 
0.63 0.05 0.1 
0.64 0.05 0.1 
0.65 0.05 0.1 
0.66 0.05 0.1 
0.67 0.05 0.1 
0.68 0.05 0.1 
0.69 0.05 0.1 
0.7 0.05 0.1 
0.71 0.05 0.1 
0.72 0.05 0.1 
0.73 0.05 0.1 
0.74 0.05 0.1 
0.75 0.05 0.1 
0.76 0.05 0.1 
0.77 0.05 0.1 
0.78 0.05 0.1 
0.79 0.05 0.1 
0.8 0.05 0.1 
0.81 0.05 0.1 
0.82 0.05 0.1 
0.83 0.05 0.1 
0.84 0.05 0.1 
0.85 0.05 0.1 
0.86 0.05 0.1 
0.87 0.05 0.1 
0.88 0.05 0.1 
0.89 0.05 0.1 
0.9 0.05 0.1 
0.91 0.05 0.1 
0.92 0.05 0.1 
0.93 0.05 0.1 
0.94 0.05 0.1 
0.95 0.05 0.1 
0.96 0.05 0.1 
0.97 0.05 0.1 
0.98 0.05 0.1 
0.99 0.05 0.1 
1 0.05 0.1 
0 0.1 0.1 
0.01 0.1 0.1 
0.02 0.1 0.1 
0.03 0.1 0.1 
0.04 0.1 0.1 
0.05 0.1 0.1 
0.06 0.1 0.1 
0.07 0.1 0.1 
0.08 0.1 0.1 
0.09 0.1 0.1 
0.1 0.1 0.1 
0.11 0.1 0.1 
0.12 0.1 0.1 
0.13 0.1 0.1 
0.14 0.1 0.1 
0.15 0.1 0.1 
0.16 0.1 0.1 
0.17 0.1 0.1 
0.18 0.1 0.1 
0.19 0.1 0.1 
0.2 0.1 0.1 
0.21 0.1 0.1 
0.22 0.1 0.1 
0.23 0.1 0.1 
0.24 0.1 0.1 
0.25 0.1 0.1 
0.26 0.1 0.1 
0.27 0.1 0.1 
0.28 0.1 0.1 
0.29 0.1 0.1 
0.3 0.1 0.1 
0.31 0.1 0.1 
0.32 0.1 0.1 
0.33 0.1 0.1 
0.34 0.1 0.1 
0.35 0.1 0.1 
0.36 0.1 0.1 
0.37 0.1 0.1 
0.38 0.1 0.1 
0.39 0.1 0.1 
0.4 0.1 0.1 
0.41 0.1 0.1 
0.42 0.1 0.1 
0.43 0.1 0.1 
0.44 0.1 0.1 
0.45 0.1 0.1 
0.46 0.1 0.1 
0.47 0.1 0.1 
0.48 0.1 0.1 
0.49 0.1 0.1 
0.5 0.1 0.1 
0.51 0.1 0.1 
0.52 0.1 0.1 
0.53 0.1 0.1 
0.54 0.1 0.1 
0.55 0.1 0.1 
0.56 0.1 0.1 
0.57 0.1 0.1 
0.58 0.1 0.1 
0.59 0.1 0.1 
0.6 0.1 0.1 
0.61 0.1 0.1 
0.62 0.1 0.1 
0.63 0.1 0.1 
0.64 0.1 0.1 
0.65 0.1 0.1 
0.66 0.1 0.1 
0.67 0.1 0.1 
0.68 0.1 0.1 
0.69 0.1 0.1 
0.7 0.1 0.1 
0.71 0.1 0.1 
0.72 0.1 0.1 
0.73 0.1 0.1 
0.74 0.1 0.1 
0.75 0.1 0.1 
0.76 0.1 0.1 
0.77 0.1 0.1 
0.78 0.1 0.1 
0.79 0.1 0.1 
0.8 0.1 0.1 
0.81 0.1 0.1 
0.82 0.1 0.1 
0.83 0.1 0.1 
0.84 0.1 0.1 
0.85 0.1 0.1 
0.86 0.1 0.1 
0.87 0.1 0.1 
0.88 0.1 0.1 
0.89 0.1 0.1 
0.9 0.1 0.1 
0.91 0.1 0.1 
0.92 0.1 0.1 
0.93 0.1 0.1 
0.94 0.1 0.1 
0.95 0.1 0.1 
0.96 0.1 0.1 
0.97 0.1 0.1 
0.98 0.1 0.1 
0.99 0.1 0.1 
1 0.1 0.1 

CELLS 50 1400
27 0 2 204 202 606 608 810 808 1 103 203 101 607 709 809 707 303 305 505 507 404 406 304 506 102 708 405 
27 2 4 206 204 608 610 812 810 3 105 205 103 609 711 811 709 305 307 507 509 406 408 306 508 104 710 407 
27 4 6 208 206 610 612 814 812 5 107 207 105 611 713 813 711 307 309 509 511 408 410 308 510 106 712 409 
27 6 8 210 208 612 614 816 814 7 109 209 107 613 715 815 713 309 311 511 513 410 412 310 512 108 714 411 
27 8 10 212 210 614 616 818 816 9 111 211 109 615 717 817 715 311 313 513 515 412 414 312 514 110 716 413 
27 10 12 214 212 616 618 820 818 11 113 213 111 617 719 819 717 313 315 515 517 414 416 314 516 112 718 415 
27 12 14 216 214 618 620 822 820 13 115 215 113 619 721 821 719 315 317 517 519 416 418 316 518 114 720 417 
27 14 16 218 216 620 622 824 822 15 117 217 115 621 723 823 721 317 319 519 521 418 420 318 520 116 722 419 
27 16 18 220 218 622 624 826 824 17 119 219 117 623 725 825 723 319 321 521 523 420 422 320 522 118 724 421 
27 18 20 222 220 624 626 828 826 19 121 221 119 625 727 827 725 321 323 523 525 422 424 322 524 120 726 423 
27 20 22 224 222 626 628 830 828 21 123 223 121 627 729 829 727 323 325 525 527 424 426 324 526 122 728 425 
27 22 24 226 224 628 630 832 830 23 125 225 123 629 731 831 729 325 327 527 529 426 428 326 528 124 730 427 
27 24 26 228 226 630 632 834 832 25 127 227 125 631 733 833 731 327 329 529 531 428 430 328 530 126 732 429 
27 26 28 230 228 632 634 836 834 27 129 229 127 633 735 835 733 329 331 531 533 430 432 330 532 128 734 431 
27 28 30 232 230 634 636 838 836 29 131 231 129 635 737 837 735 331 333 533 535 432 434 332 534 130 736 433 
27 30 32 234 232 636 638 840 838 31 133 233 131 637 739 839 737 333 335 535 537 434 436 334 536 132 738 435 
27 32 34 236 234 638 640 842 840 33 135 235 133 639 741 841 739 335 337 537 539 436 438 336 538 134 740 437 
27 34 36 238 236 640 642 844 842 35 137 237 135 641 743 843 741 337 339 539 541 438 440 338 540 136 742 439 
27 36 38 240 238 642 644 846 844 37 139 239 137 643 745 845 743 339 341 541 543 440 442 340 542 138 744 441 
27 38 40 242 240 644 646 848 846 39 141 241 139 645 747 847 745 341 343 543 545 442 444 342 544 140 746 443 
27 40 42 244 242 646 648 850 848 41 143 243 141 647 749 849 747 343 345 545 547 444 446 344 546 142 748 445 
27 42 44 246 244 648 650 852 850 43 145 245 143 649 751 851 749 345 347 547 549 446 448 346 548 144 750 447 
27 44 46 248 246 650 652 854 852 45 147 247 145 651 753 853 751 347 349 549 551 448 450 348 550 146 752 449 
27 46 48 250 248 652 654 856 854 47 149 249 147 653 755 855 753 349 351 551 553 450 452 350 552 148 754 451 
27 48 50 252 250 654 656 858 856 49 151 251 149 655 757 857 755 351 353 553 555 452 454 352 554 150 756 453 
27 50 52 254 252 656 658 860 858 51 153 253 151 657 759 859 757 353 355 555 557 454 456 354 556 152 758 455 
27 52 54 256 254 658 660 862 860 53 155 255 153 659 761 861 759 355 357 557 559 456 458 356 558 154 760 457 
27 54 56 258 256 660 662 864 862 55 157 257 155 661 763 863 761 357 359 559 561 458 460 358 560 156 762 459 
27 56 58 260 258 662 664 866 864 57 159 259 157 663 765 865 763 359 361 561 563 460 462 360 562 158 764 461 
27 58 60 262 260 664 666 868 866 59 161 261 159 665 767 867 765 361 363 563 565 462 464 362 564 160 766 463 
27 60 62 264 262 666 668 870 868 61 163 263 161 667 769 869 767 363 365 565 567 464 466 364 566 162 768 465 
27 62 64 266 264 668 670 872 870 63 165 265 163 669 771 871 769 365 367 567 569 466 468 366 568 164 770 467 
27 64 66 268 266 670 672 874 872 65 167 267 165 671 773 873 771 367 369 569 571 468 470 368 570 166 772 469 
27 66 68 270 268 672 674 876 874 67 169 269 167 673 775 875 773 369 371 571 573 470 472 370 572 168 774 471 
27 68 70 272 270 674 676 878 876 69 171 271 169 675 777 877 775 371 373 573 575 472 474 372 574 170 776 473 
27 70 72 274 272 676 678 880 878 71 173 273 171 677 779 879 777 373 375 575 577 474 476 374 576 172 778 475 
27 72 74 276 274 678 680 882 880 73 175 275 173 679 781 881 779 375 377 577 579 476 478 376 578 174 780 477 
27 74 76 278 276 680 682 884 882 75 177 277 175 681 783 883 781 377 379 579 581 478 480 378 580 176 782 479 
27 76 78 280 278 682 684 886 884 77 179 279 177 683 785 885 783 379 381 581 583 480 482 380 582 178 784 481 
27 78 80 282 280 684 686 888 886 79 181 281 179 685 787 887 785 381 383 583 585 482 484 382 584 180 786 483 
27 80 82 284 282 686 688 890 888 81 183 283 181 687 789 889 787 383 385 585 587 484 486 384 586 182 788 485 
27 82 84 286 284 688 690 892 890 83 185 285 183 689 791 891 789 385 387 587 589 486 488 386 588 184 790 487 
27 84 86 288 286 690 692 894 892 85 187 287 185 691 793 893 791 387 389 589 591 488 490 388 590 186 792 489 
27 86 88 290 288 692 694 896 894 87 189 289 187 693 795 895 793 389 391 591 593 490 492 390 592 188 794 491 
27 88 90 292 290 694 696 898 896 89 191 291 189 695 797 897 795 391 393 593 595 492 494 392 594 190 796 493 
27 90 92 294 292 696 698 900 898 91 193 293 191 697 799 899 797 393 395 595 597 494 496 394 596 192 798 495 
27 92 94 296 294 698 700 902 900 93 195 295 193 699 801 901 799 395 397 597 599 496 498 396 598 194 800 497 
27 94 96 298 296 700 702 904 902 95 197 297 195 701 803 903 801 397 399 599 601 498 500 398 600 196 802 499 
27 96 98 300 298 702 704 906 904 97 199 299 197 703 805 905 803 399 401 601 603 500 502 400 602 198 804 501 
27 98 100 302 300 704 706 908 906 99 201 301 199 705 807 907 805 401 403 603 605 502 504 402 604 200 806 503 

CELL_TYPES 50
72
72
72
72
72
72
72
72
72
72
72
72
72
72
72
72
72
72
72
72
72
72
72
72
72
72
72
72
72
72
72
72
72
72
72
72
72
72
72
72
72
72
72
72
72
72
72
72
72
72

POINT_DATA 909
SCALARS point_var float 1
LOOKUP_TABLE default
0
1
2
3
4
5
6
7
8
9
10
11
12
13
14
15
16
17
18
19
20
21
22
23
24
25
26
27
28
29
30
31
32
33
34
35
36
37
38
39
40
41
42
43
44
45
46
47
48
49
50
51
52
53
54
55
56
57
58
59
60
61
62
63
64
65
66
67
68
69
70
71
72
73
74
75
76
77
78
79
80
81
82
83
84
85
86
87
88
89
90
91
92
93
94
95
96
97
98
99
100
101
102
103
104
105
106
107
108
109
110
111
112
113
114
115
116
117
118
119
120
121
122
123
124
125
126
127
128
129
130
131
132
133
134
135
136
137
138
139
140
141
142
143
144
145
146
147
148
149
150
151
152
153
154
155
156
157
158
159
160
161
162
163
164
165
166
167
168
169
170
171
172
173
174
175
176
177
178
179
180
181
182
183
184
185
186
187
188
189
190
191
192
193
194
195
196
197
198
199
200
201
202
203
204
205
206
207
208
209
210
211
212
213
214
215
216
217
218
219
220
221
222
223
224
225
226
227
228
229
230
231
232
233
234
235
236
237
238
239
240
241
242
243
244
245
246
247
248
249
250
251
252
253
254
255
256
257
258
259
260
261
262
263
264
265
266
267
268
269
270
271
272
273
274
275
276
277
278
279
280
281
282
283
284
285
286
287
288
289
290
291
292
293
294
295
296
297
298
299
300
301
302
303
304
305
306
307
308
309
310
311
312
313
314
315
316
317
318
319
320
321
322
323
324
325
326
327
328
329
330
331
332
333
334
335
336
337
338
339
340
341
342
343
344
345
346
347
348
349
350
351
352
353
354
355
356
357
358
359
360
361
362
363
364
365
366
367
368
369
370
371
372
373
374
375
376
377
378
379
380
381
382
383
384
385
386
387
388
389
390
391
392
393
394
395
396
397
398
399
400
401
402
403
404
405
406
407
408
409
410
411
412
413
414
415
416
417
418
419
420
421
422
423
424
425
426
427
428
429
430
431
432
433
434
435
436
437
438
439
440
441
442
443
444
445
446
447
448
449
450
451
452
453
454
455
456
457
458
459
460
461
462
463
464
465
466
467
468
469
470
471
472
473
474
475
476
477
478
479
480
481
482
483
484
485
486
487
488
489
490
491
492
493
494
495
496
497
498
499
500
501
502
503
504
505
506
507
508
509
510
511
512
513
514
515
516
517
518
519
520
521
522
523
524
525
526
527
528
529
530
531
532
533
534
535
536
537
538
539
540
541
542
543
544
545
546
547
548
549
550
551
552
553
554
555
556
557
558
559
560
561
562
563
564
565
566
567
568
569
570
571
572
573
574
575
576
577
578
579
580
581
582
583
584
585
586
587
588
589
590
591
592
593
594
595
596
597
598
599
600
601
602
603
604
605
606
607
608
609
610
611
612
613
614
615
616
617
618
619
620
621
622
623
624
625
626
627
628
629
630
631
632
633
634
635
636
637
638
639
640
641
642
643
644
645
646
647
648
649
650
651
652
653
654
655
656
657
658
659
660
661
662
663
664
665
666
667
668
669
670
671
672
673
674
675
676
677
678
679
680
681
682
683
684
685
686
687
688
689
690
691
692
693
694
695
696
697
698
699
700
701
702
703
704
705
706
707
708
709
710
711
712
713
714
715
716
717
718
719
720
721
722
723
724
725
726
727
728
729
730
731
732
733
734
735
736
737
738
739
740
741
742
743
744
745
746
747
748
749
750
751
752
753
754
755
756
757
758
759
760
761
762
763
764
765
766
767
768
769
770
771
772
773
774
775
776
777
778
779
780
781
782
783
784
785
786
787
788
789
790
791
792
793
794
795
796
797
798
799
800
801
802
803
804
805
806
807
808
809
810
811
812
813
814
815
816
817
818
819
820
821
822
823
824
825
826
827
828
829
830
831
832
833
834
835
836
837
838
839
840
841
842
843
844
845
846
847
848
849
850
851
852
853
854
855
856
857
858
859
860
861
862
863
864
865
866
867
868
869
870
871
872
873
874
875
876
877
878
879
880
881
882
883
884
885
886
887
888
889
890
891
892
893
894
895
896
897
898
899
900
901
902
903
904
905
906
907
908

VECTORS point_vec float
0 1 2
0 1 2
0 1 2
0 1 2
0 1 2
0 1 2
0 1 2
0 1 2
0 1 2
0 1 2
0 1 2
0 1 2
0 1 2
0 1 2
0 1 2
0 1 2
0 1 2
0 1 2
0 1 2
0 1 2
0 1 2
0 1 2
0 1 2
0 1 2
0 1 2
0 1 2
0 1 2
0 1 2
0 1 2
0 1 2
0 1 2
0 1 2
0 1 2
0 1 2
0 1 2
0 1 2
0 1 2
0 1 2
0 1 2
0 1 2
0 1 2
0 1 2
0 1 2
0 1 2
0 1 2
0 1 2
0 1 2
0 1 2
0 1 2
0 1 2
0 1 2
0 1 2
0 1 2
0 1 2
0 1 2
0 1 2
0 1 2
0 1 2
0 1 2
0 1 2
0 1 2
0 1 2
0 1 2
0 1 2
0 1 2
0 1 2
0 1 2
0 1 2
0 1 2
0 1 2
0 1 2
0 1 2
0 1 2
0 1 2
0 1 2
0 1 2
0 1 2
0 1 2
0 1 2
0 1 2
0 1 2
0 1 2
0 1 2
0 1 2
0 1 2
0 1 2
0 1 2
0 1 2
0 1 2
0 1 2
0 1 2
0 1 2
0 1 2
0 1 2
0 1 2
0 1 2
0 1 2
0 1 2
0 1 2
0 1 2
0 1 2
0 1 2
0 1 2
0 1 2
0 1 2
0 1 2
0 1 2
0 1 2
0 1 2
0 1 2
0 1 2
0 1 2
0 1 2
0 1 2
0 1 2
0 1 2
0 1 2
0 1 2
0 1 2
0 1 2
0 1 2
0 1 2
0 1 2
0 1 2
0 1 2
0 1 2
0 1 2
0 1 2
0 1 2
0 1 2
0 1 2
0 1 2
0 1 2
0 1 2
0 1 2
0 1 2
0 1 2
0 1 2
0 1 2
0 1 2
0 1 2
0 1 2
0 1 2
0 1 2
0 1 2
0 1 2
0 1 2
0 1 2
0 1 2
0 1 2
0 1 2
0 1 2
0 1 2
0 1 2
0 1 2
0 1 2
0 1 2
0 1 2
0 1 2
0 1 2
0 1 2
0 1 2
0 1 2
0 1 2
0 1 2
0 1 2
0 1 2
0 1 2
0 1 2
0 1 2
0 1 2
0 1 2
0 1 2
0 1 2
0 1 2
0 1 2
0 1 2
0 1 2
0 1 2
0 1 2
0 1 2
0 1 2
0 1 2
0 1 2
0 1 2
0 1 2
0 1 2
0 1 2
0 1 2
0 1 2
0 1 2
0 1 2
0 1 2
0 1 2
0 1 2
0 1 2
0 1 2
0 1 2
0 1 2
0 1 2
0 1 2
0 1 2
0 1 2
0 1 2
0 1 2
0 1 2
0 1 2
0 1 2
0 1 2
0 1 2
0 1 2
0 1 2
0 1 2
0 1 2
0 1 2
0 1 2
0 1 2
0 1 2
0 1 2
0 1 2
0 1 2
0 1 2
0 1 2
0 1 2
0 1 2
0 1 2
0 1 2
0 1 2
0 1 2
0 1 2
0 1 2
0 1 2
0 1 2
0 1 2
0 1 2
0 1 2
0 1 2
0 1 2
0 1 2
0 1 2
0 1 2
0 1 2
0 1 2
0 1 2
0 1 2
0 1 2
0 1 2
0 1 2
0 1 2
0 1 2
0 1 2
0 1 2
0 1 2
0 1 2
0 1 2
0 1 2
0 1 2
0 1 2
0 1 2
0 1 2
0 1 2
0 1 2
0 1 2
0 1 2
0 1 2
0 1 2
0 1 2
0 1 2
0 1 2
0 1 2
0 1 2
0 1 2
0 1 2
0 1 2
0 1 2
0 1 2
0 1 2
0 1 2
0 1 2
0 1 2
0 1 2
0 1 2
0 1 2
0 1 2
0 1 2
0 1 2
0 1 2
0 1 2
0 1 2
0 1 2
0 1 2
0 1 2
0 1 2
0 1 2
0 1 2
0 1 2
0 1 2
0 1 2
0 1 2
0 1 2
0 1 2
0 1 2
0 1 2
0 1 2
0 1 2
0 1 2
0 1 2
0 1 2
0 1 2
0 1 2
0 1 2
0 1 2
0 1 2
0 1 2
0 1 2
0 1 2
0 1 2
0 1 2
0 1 2
0 1 2
0 1 2
0 1 2
0 1 2
0 1 2
0 1 2
0 1 2
0 1 2
0 1 2
0 1 2
0 1 2
0 1 2
0 1 2
0 1 2
0 1 2
0 1 2
0 1 2
0 1 2
0 1 2
0 1 2
0 1 2
0 1 2
0 1 2
0 1 2
0 1 2
0 1 2
0 1 2
0 1 2
0 1 2
0 1 2
0 1 2
0 1 2
0 1 2
0 1 2
0 1 2
0 1 2
0 1 2
0 1 2
0 1 2
0 1 2
0 1 2
0 1 2
0 1 2
0 1 2
0 1 2
0 1 2
0 1 2
0 1 2
0 1 2
0 1 2
0 1 2
0 1 2
0 1 2
0 1 2
0 1 2
0 1 2
0 1 2
0 1 2
0 1 2
0 1 2
0 1 2
0 1 2
0 1 2
0 1 2
0 1 2
0 1 2
0 1 2
0 1 2
0 1 2
0 1 2
0 1 2
0 1 2
0 1 2
0 1 2
0 1 2
0 1 2
0 1 2
0 1 2
0 1 2
0 1 2
0 1 2
0 1 2
0 1 2
0 1 2
0 1 2
0 1 2
0 1 2
0 1 2
0 1 2
0 1 2
0 1 2
0 1 2
0 1 2
0 1 2
0 1 2
0 1 2
0 1 2
0 1 2
0 1 2
0 1 2
0 1 2
0 1 2
0 1 2
0 1 2
0 1 2
0 1 2
0 1 2
0 1 2
0 1 2
0 1 2
0 1 2
0 1 2
0 1 2
0 1 2
0 1 2
0 1 2
0 1 2
0 1 2
0 1 2
0 1 2
0 1 2
0 1 2
0 1 2
0 1 2
0 1 2
0 1 2
0 1 2
0 1 2
0 1 2
0 1 2
0 1 2
0 1 2
0 1 2
0 1 2
0 1 2
0 1 2
0 1 2
0 1 2
0 1 2
0 1 2
0 1 2
0 1 2
0 1 2
0 1 2
0 1 2
0 1 2
0 1 2
0 1 2
0 1 2
0 1 2
0 1 2
0 1 2
0 1 2
0 1 2
0 1 2
0 1 2
0 1 2
0 1 2
0 1 2
0 1 2
0 1 2
0 1 2
0 1 2
0 1 2
0 1 2
0 1 2
0 1 2
0 1 2
0 1 2
0 1 2
0 1 2
0 1 2
0 1 2
0 1 2
0 1 2
0 1 2
0 1 2
0 1 2
0 1 2
0 1 2
0 1 2
0 1 2
0 1 2
0 1 2
0 1 2
0 1 2
0 1 2
0 1 2
0 1 2
0 1 2
0 1 2
0 1 2
0 1 2
0 1 2
0 1 2
0 1 2
0 1 2
0 1 2
0 1 2
0 1 2
0 1 2
0 1 2
0 1 2
0 1 2
0 1 2
0 1 2
0 1 2
0 1 2
0 1 2
0 1 2
0 1 2
0 1 2
0 1 2
0 1 2
0 1 2
0 1 2
0 1 2
0 1 2
0 1 2
0 1 2
0 1 2
0 1 2
0 1 2
0 1 2
0 1 2
0 1 2
0 1 2
0 1 2
0 1 2
0 1 2
0 1 2
0 1 2
0 1 2
0 1 2
0 1 2
0 1 2
0 1 2
0 1 2
0 1 2
0 1 2
0 1 2
0 1 2
0 1 2
0 1 2
0 1 2
0 1 2
0 1 2
0 1 2
0 1 2
0 1 2
0 1 2
0 1 2
0 1 2
0 1 2
0 1 2
0 1 2
0 1 2
0 1 2
0 1 2
0 1 2
0 1 2
0 1 2
0 1 2
0 1 2
0 1 2
0 1 2
0 1 2
0 1 2
0 1 2
0 1 2
0 1 2
0 1 2
0 1 2
0 1 2
0 1 2
0 1 2
0 1 2
0 1 2
0 1 2
0 1 2
0 1 2
0 1 2
0 1 2
0 1 2
0 1 2
0 1 2
0 1 2
0 1 2
0 1 2
0 1 2
0 1 2
0 1 2
0 1 2
0 1 2
0 1 2
0 1 2
0 1 2
0 1 2
0 1 2
0 1 2
0 1 2
0 1 2
0 1 2
0 1 2
0 1 2
0 1 2
0 1 2
0 1 2
0 1 2
0 1 2
0 1 2
0 1 2
0 1 2
0 1 2
0 1 2
0 1 2
0 1 2
0 1 2
0 1 2
0 1 2
0 1 2
0 1 2
0 1 2
0 1 2
0 1 2
0 1 2
0 1 2
0 1 2
0 1 2
0 1 2
0 1 2
0 1 2
0 1 2
0 1 2
0 1 2
0 1 2
0 1 2
0 1 2
0 1 2
0 1 2
0 1 2
0 1 2
0 1 2
0 1 2
0 1 2
0 1 2
0 1 2
0 1 2
0 1 2
0 1 2
0 1 2
0 1 2
0 1 2
0 1 2
0 1 2
0 1 2
0 1 2
0 1 2
0 1 2
0 1 2
0 1 2
0 1 2
0 1 2
0 1 2
0 1 2
0 1 2
0 1 2
0 1 2
0 1 2
0 1 2
0 1 2
0 1 2
0 1 2
0 1 2
0 1 2
0 1 2
0 1 2
0 1 2
0 1 2
0 1 2
0 1 2
0 1 2
0 1 2
0 1 2
0 1 2
0 1 2
0 1 2
0 1 2
0 1 2
0 1 2
0 1 2
0 1 2
0 1 2
0 1 2
0 1 2
0 1 2
0 1 2
0 1 2
0 1 2
0 1 2
0 1 2
0 1 2
0 1 2
0 1 2
0 1 2
0 1 2
0 1 2
0 1 2
0 1 2
0 1 2
0 1 2
0 1 2
0 1 2
0 1 2
0 1 2
0 1 2
0 1 2
0 1 2
0 1 2
0 1 2
0 1 2
0 1 2
0 1 2
0 1 2
0 1 2
0 1 2
0 1 2
0 1 2
0 1 2
0 1 2
0 1 2
0 1 2
0 1 2
0 1 2
0 1 2
0 1 2
0 1 2
0 1 2
0 1 2
0 1 2
0 1 2
0 1 2
0 1 2
0 1 2
0 1 2
0 1 2
0 1 2
0 1 2
0 1 2
0 1 2
0 1 2
0 1 2
0 1 2
0 1 2
0 1 2
0 1 2
0 1 2
0 1 2
0 1 2
0 1 2
0 1 2
0 1 2
0 1 2
0 1 2
0 1 2
0 1 2
0 1 2
0 1 2
0 1 2
0 1 2
0 1 2
0 1 2
0 1 2
0 1 2
0 1 2
0 1 2
0 1 2
0 1 2
0 1 2
0 1 2
0 1 2
0 1 2
0 1 2
0 1 2
0 1 2
0 1 2
0 1 2
0 1 2
0 1 2
0 1 2
0 1 2
0 1 2
0 1 2
0 1 2
0 1 2
0 1 2
0 1 2
0 1 2
0 1 2
0 1 2
0 1 2
0 1 2
0 1 2
0 1 2
0 1 2
0 1 2
0 1 2
0 1 2
0 1 2
0 1 2
0 1 2
0 1 2
0 1 2
0 1 2
0 1 2
0 1 2
0 1 2
0 1 2
0 1 2
0 1 2
0 1 2
0 1 2
0 1 2
0 1 2
0 1 2
0 1 2
0 1 2
0 1 2
0 1 2
0 1 2
0 1 2
0 1 2
0 1 2
0 1 2
0 1 2
0 1 2
0 1 2
0 1 2
0 1 2
0 1 2
0 1 2
0 1 2
0 1 2
0 1 2
0 1 2
0 1 2
0 1 2
0 1 2
0 1 2
0 1 2
0 1 2
0 1 2
0 1 2
0 1 2
0 1 2
0 1 2
0 1 2
0 1 2
0 1 2
0 1 2
0 1 2
0 1 2
0 1 2
0 1 2
0 1 2
0 1 2
0 1 2
0 1 2
0 1 2
0 1 2
0 1 2
0 1 2
0 1 2
0 1 2
0 1 2
0 1 2
0 1 2
0 1 2
0 1 2
0 1 2
0 1 2
0 1 2
0 1 2
0 1 2
0 1 2
0 1 2
0 1 2
0 1 2
0 1 2
0 1 2

CELL_DATA 50
SCALARS elem_var float 1
LOOKUP_TABLE default 
0
1
2
3
4
5
6
7
8
9
10
11
12
13
14
15
16
17
18
19
20
21
22
23
24
25
26
27
28
29
30
31
32
33
34
35
36
37
38
39
40
41
42
43
44
45
46
47
48
49

SCALARS elem_var2 float 1
LOOKUP_TABLE default 
0
18446744073709551615
18446744073709551614
18446744073709551613
18446744073709551612
18446744073709551611
18446744073709551610
18446744073709551609
18446744073709551608
18446744073709551607
18446744073709551606
18446744073709551605
18446744073709551604
18446744073709551603
18446744073709551602
18446744073709551601
18446744073709551600
18446744073709551599
18446744073709551598
18446744073709551597
18446744073709551596
18446744073709551595
18446744073709551594
18446744073709551593
18446744073709551592
18446744073709551591
18446744073709551590
18446744073709551589
18446744073709551588
18446744073709551587
18446744073709551586
18446744073709551585
18446744073709551584
18446744073709551583
18446744073709551582
18446744073709551581
18446744073709551580
18446744073709551579
18446744073709551578
18446744073709551577
18446744073709551576
18446744073709551575
18446744073709551574
18446744073709551573
18446744073709551572
18446744073709551571
18446744073709551570
18446744073709551569
18446744073709551568
18446744073709551567
