# vtk DataFile Version 2.0
Mesh for Fierro
ASCII
DATASET UNSTRUCTURED_GRID

POINTS 336 float
0 0 0 
0.05 0 0 
0.1 0 0 
0.15 0 0 
0.2 0 0 
0.25 0 0 
0.3 0 0 
0.35 0 0 
0.4 0 0 
0.45 0 0 
0.5 0 0 
0.55 0 0 
0.6 0 0 
0.65 0 0 
0.7 0 0 
0.75 0 0 
0.8 0 0 
0.85 0 0 
0.9 0 0 
0.95 0 0 
1 0 0 
0 0.0333333 0 
0.05 0.0333333 0 
0.1 0.0333333 0 
0.15 0.0333333 0 
0.2 0.0333333 0 
0.25 0.0333333 0 
0.3 0.0333333 0 
0.35 0.0333333 0 
0.4 0.0333333 0 
0.45 0.0333333 0 
0.5 0.0333333 0 
0.55 0.0333333 0 
0.6 0.0333333 0 
0.65 0.0333333 0 
0.7 0.0333333 0 
0.75 0.0333333 0 
0.8 0.0333333 0 
0.85 0.0333333 0 
0.9 0.0333333 0 
0.95 0.0333333 0 
1 0.0333333 0 
0 0.0666667 0 
0.05 0.0666667 0 
0.1 0.0666667 0 
0.15 0.0666667 0 
0.2 0.0666667 0 
0.25 0.0666667 0 
0.3 0.0666667 0 
0.35 0.0666667 0 
0.4 0.0666667 0 
0.45 0.0666667 0 
0.5 0.0666667 0 
0.55 0.0666667 0 
0.6 0.0666667 0 
0.65 0.0666667 0 
0.7 0.0666667 0 
0.75 0.0666667 0 
0.8 0.0666667 0 
0.85 0.0666667 0 
0.9 0.0666667 0 
0.95 0.0666667 0 
1 0.0666667 0 
0 0.1 0 
0.05 0.1 0 
0.1 0.1 0 
0.15 0.1 0 
0.2 0.1 0 
0.25 0.1 0 
0.3 0.1 0 
0.35 0.1 0 
0.4 0.1 0 
0.45 0.1 0 
0.5 0.1 0 
0.55 0.1 0 
0.6 0.1 0 
0.65 0.1 0 
0.7 0.1 0 
0.75 0.1 0 
0.8 0.1 0 
0.85 0.1 0 
0.9 0.1 0 
0.95 0.1 0 
1 0.1 0 
0 0 0.0333333 
0.05 0 0.0333333 
0.1 0 0.0333333 
0.15 0 0.0333333 
0.2 0 0.0333333 
0.25 0 0.0333333 
0.3 0 0.0333333 
0.35 0 0.0333333 
0.4 0 0.0333333 
0.45 0 0.0333333 
0.5 0 0.0333333 
0.55 0 0.0333333 
0.6 0 0.0333333 
0.65 0 0.0333333 
0.7 0 0.0333333 
0.75 0 0.0333333 
0.8 0 0.0333333 
0.85 0 0.0333333 
0.9 0 0.0333333 
0.95 0 0.0333333 
1 0 0.0333333 
0 0.0333333 0.0333333 
0.05 0.0333333 0.0333333 
0.1 0.0333333 0.0333333 
0.15 0.0333333 0.0333333 
0.2 0.0333333 0.0333333 
0.25 0.0333333 0.0333333 
0.3 0.0333333 0.0333333 
0.35 0.0333333 0.0333333 
0.4 0.0333333 0.0333333 
0.45 0.0333333 0.0333333 
0.5 0.0333333 0.0333333 
0.55 0.0333333 0.0333333 
0.6 0.0333333 0.0333333 
0.65 0.0333333 0.0333333 
0.7 0.0333333 0.0333333 
0.75 0.0333333 0.0333333 
0.8 0.0333333 0.0333333 
0.85 0.0333333 0.0333333 
0.9 0.0333333 0.0333333 
0.95 0.0333333 0.0333333 
1 0.0333333 0.0333333 
0 0.0666667 0.0333333 
0.05 0.0666667 0.0333333 
0.1 0.0666667 0.0333333 
0.15 0.0666667 0.0333333 
0.2 0.0666667 0.0333333 
0.25 0.0666667 0.0333333 
0.3 0.0666667 0.0333333 
0.35 0.0666667 0.0333333 
0.4 0.0666667 0.0333333 
0.45 0.0666667 0.0333333 
0.5 0.0666667 0.0333333 
0.55 0.0666667 0.0333333 
0.6 0.0666667 0.0333333 
0.65 0.0666667 0.0333333 
0.7 0.0666667 0.0333333 
0.75 0.0666667 0.0333333 
0.8 0.0666667 0.0333333 
0.85 0.0666667 0.0333333 
0.9 0.0666667 0.0333333 
0.95 0.0666667 0.0333333 
1 0.0666667 0.0333333 
0 0.1 0.0333333 
0.05 0.1 0.0333333 
0.1 0.1 0.0333333 
0.15 0.1 0.0333333 
0.2 0.1 0.0333333 
0.25 0.1 0.0333333 
0.3 0.1 0.0333333 
0.35 0.1 0.0333333 
0.4 0.1 0.0333333 
0.45 0.1 0.0333333 
0.5 0.1 0.0333333 
0.55 0.1 0.0333333 
0.6 0.1 0.0333333 
0.65 0.1 0.0333333 
0.7 0.1 0.0333333 
0.75 0.1 0.0333333 
0.8 0.1 0.0333333 
0.85 0.1 0.0333333 
0.9 0.1 0.0333333 
0.95 0.1 0.0333333 
1 0.1 0.0333333 
0 0 0.0666667 
0.05 0 0.0666667 
0.1 0 0.0666667 
0.15 0 0.0666667 
0.2 0 0.0666667 
0.25 0 0.0666667 
0.3 0 0.0666667 
0.35 0 0.0666667 
0.4 0 0.0666667 
0.45 0 0.0666667 
0.5 0 0.0666667 
0.55 0 0.0666667 
0.6 0 0.0666667 
0.65 0 0.0666667 
0.7 0 0.0666667 
0.75 0 0.0666667 
0.8 0 0.0666667 
0.85 0 0.0666667 
0.9 0 0.0666667 
0.95 0 0.0666667 
1 0 0.0666667 
0 0.0333333 0.0666667 
0.05 0.0333333 0.0666667 
0.1 0.0333333 0.0666667 
0.15 0.0333333 0.0666667 
0.2 0.0333333 0.0666667 
0.25 0.0333333 0.0666667 
0.3 0.0333333 0.0666667 
0.35 0.0333333 0.0666667 
0.4 0.0333333 0.0666667 
0.45 0.0333333 0.0666667 
0.5 0.0333333 0.0666667 
0.55 0.0333333 0.0666667 
0.6 0.0333333 0.0666667 
0.65 0.0333333 0.0666667 
0.7 0.0333333 0.0666667 
0.75 0.0333333 0.0666667 
0.8 0.0333333 0.0666667 
0.85 0.0333333 0.0666667 
0.9 0.0333333 0.0666667 
0.95 0.0333333 0.0666667 
1 0.0333333 0.0666667 
0 0.0666667 0.0666667 
0.05 0.0666667 0.0666667 
0.1 0.0666667 0.0666667 
0.15 0.0666667 0.0666667 
0.2 0.0666667 0.0666667 
0.25 0.0666667 0.0666667 
0.3 0.0666667 0.0666667 
0.35 0.0666667 0.0666667 
0.4 0.0666667 0.0666667 
0.45 0.0666667 0.0666667 
0.5 0.0666667 0.0666667 
0.55 0.0666667 0.0666667 
0.6 0.0666667 0.0666667 
0.65 0.0666667 0.0666667 
0.7 0.0666667 0.0666667 
0.75 0.0666667 0.0666667 
0.8 0.0666667 0.0666667 
0.85 0.0666667 0.0666667 
0.9 0.0666667 0.0666667 
0.95 0.0666667 0.0666667 
1 0.0666667 0.0666667 
0 0.1 0.0666667 
0.05 0.1 0.0666667 
0.1 0.1 0.0666667 
0.15 0.1 0.0666667 
0.2 0.1 0.0666667 
0.25 0.1 0.0666667 
0.3 0.1 0.0666667 
0.35 0.1 0.0666667 
0.4 0.1 0.0666667 
0.45 0.1 0.0666667 
0.5 0.1 0.0666667 
0.55 0.1 0.0666667 
0.6 0.1 0.0666667 
0.65 0.1 0.0666667 
0.7 0.1 0.0666667 
0.75 0.1 0.0666667 
0.8 0.1 0.0666667 
0.85 0.1 0.0666667 
0.9 0.1 0.0666667 
0.95 0.1 0.0666667 
1 0.1 0.0666667 
0 0 0.1 
0.05 0 0.1 
0.1 0 0.1 
0.15 0 0.1 
0.2 0 0.1 
0.25 0 0.1 
0.3 0 0.1 
0.35 0 0.1 
0.4 0 0.1 
0.45 0 0.1 
0.5 0 0.1 
0.55 0 0.1 
0.6 0 0.1 
0.65 0 0.1 
0.7 0 0.1 
0.75 0 0.1 
0.8 0 0.1 
0.85 0 0.1 
0.9 0 0.1 
0.95 0 0.1 
1 0 0.1 
0 0.0333333 0.1 
0.05 0.0333333 0.1 
0.1 0.0333333 0.1 
0.15 0.0333333 0.1 
0.2 0.0333333 0.1 
0.25 0.0333333 0.1 
0.3 0.0333333 0.1 
0.35 0.0333333 0.1 
0.4 0.0333333 0.1 
0.45 0.0333333 0.1 
0.5 0.0333333 0.1 
0.55 0.0333333 0.1 
0.6 0.0333333 0.1 
0.65 0.0333333 0.1 
0.7 0.0333333 0.1 
0.75 0.0333333 0.1 
0.8 0.0333333 0.1 
0.85 0.0333333 0.1 
0.9 0.0333333 0.1 
0.95 0.0333333 0.1 
1 0.0333333 0.1 
0 0.0666667 0.1 
0.05 0.0666667 0.1 
0.1 0.0666667 0.1 
0.15 0.0666667 0.1 
0.2 0.0666667 0.1 
0.25 0.0666667 0.1 
0.3 0.0666667 0.1 
0.35 0.0666667 0.1 
0.4 0.0666667 0.1 
0.45 0.0666667 0.1 
0.5 0.0666667 0.1 
0.55 0.0666667 0.1 
0.6 0.0666667 0.1 
0.65 0.0666667 0.1 
0.7 0.0666667 0.1 
0.75 0.0666667 0.1 
0.8 0.0666667 0.1 
0.85 0.0666667 0.1 
0.9 0.0666667 0.1 
0.95 0.0666667 0.1 
1 0.0666667 0.1 
0 0.1 0.1 
0.05 0.1 0.1 
0.1 0.1 0.1 
0.15 0.1 0.1 
0.2 0.1 0.1 
0.25 0.1 0.1 
0.3 0.1 0.1 
0.35 0.1 0.1 
0.4 0.1 0.1 
0.45 0.1 0.1 
0.5 0.1 0.1 
0.55 0.1 0.1 
0.6 0.1 0.1 
0.65 0.1 0.1 
0.7 0.1 0.1 
0.75 0.1 0.1 
0.8 0.1 0.1 
0.85 0.1 0.1 
0.9 0.1 0.1 
0.95 0.1 0.1 
1 0.1 0.1 

CELLS 180 1620
8 0 1 22 21 84 85 106 105 
8 1 2 23 22 85 86 107 106 
8 2 3 24 23 86 87 108 107 
8 3 4 25 24 87 88 109 108 
8 4 5 26 25 88 89 110 109 
8 5 6 27 26 89 90 111 110 
8 6 7 28 27 90 91 112 111 
8 7 8 29 28 91 92 113 112 
8 8 9 30 29 92 93 114 113 
8 9 10 31 30 93 94 115 114 
8 10 11 32 31 94 95 116 115 
8 11 12 33 32 95 96 117 116 
8 12 13 34 33 96 97 118 117 
8 13 14 35 34 97 98 119 118 
8 14 15 36 35 98 99 120 119 
8 15 16 37 36 99 100 121 120 
8 16 17 38 37 100 101 122 121 
8 17 18 39 38 101 102 123 122 
8 18 19 40 39 102 103 124 123 
8 19 20 41 40 103 104 125 124 
8 21 22 43 42 105 106 127 126 
8 22 23 44 43 106 107 128 127 
8 23 24 45 44 107 108 129 128 
8 24 25 46 45 108 109 130 129 
8 25 26 47 46 109 110 131 130 
8 26 27 48 47 110 111 132 131 
8 27 28 49 48 111 112 133 132 
8 28 29 50 49 112 113 134 133 
8 29 30 51 50 113 114 135 134 
8 30 31 52 51 114 115 136 135 
8 31 32 53 52 115 116 137 136 
8 32 33 54 53 116 117 138 137 
8 33 34 55 54 117 118 139 138 
8 34 35 56 55 118 119 140 139 
8 35 36 57 56 119 120 141 140 
8 36 37 58 57 120 121 142 141 
8 37 38 59 58 121 122 143 142 
8 38 39 60 59 122 123 144 143 
8 39 40 61 60 123 124 145 144 
8 40 41 62 61 124 125 146 145 
8 42 43 64 63 126 127 148 147 
8 43 44 65 64 127 128 149 148 
8 44 45 66 65 128 129 150 149 
8 45 46 67 66 129 130 151 150 
8 46 47 68 67 130 131 152 151 
8 47 48 69 68 131 132 153 152 
8 48 49 70 69 132 133 154 153 
8 49 50 71 70 133 134 155 154 
8 50 51 72 71 134 135 156 155 
8 51 52 73 72 135 136 157 156 
8 52 53 74 73 136 137 158 157 
8 53 54 75 74 137 138 159 158 
8 54 55 76 75 138 139 160 159 
8 55 56 77 76 139 140 161 160 
8 56 57 78 77 140 141 162 161 
8 57 58 79 78 141 142 163 162 
8 58 59 80 79 142 143 164 163 
8 59 60 81 80 143 144 165 164 
8 60 61 82 81 144 145 166 165 
8 61 62 83 82 145 146 167 166 
8 84 85 106 105 168 169 190 189 
8 85 86 107 106 169 170 191 190 
8 86 87 108 107 170 171 192 191 
8 87 88 109 108 171 172 193 192 
8 88 89 110 109 172 173 194 193 
8 89 90 111 110 173 174 195 194 
8 90 91 112 111 174 175 196 195 
8 91 92 113 112 175 176 197 196 
8 92 93 114 113 176 177 198 197 
8 93 94 115 114 177 178 199 198 
8 94 95 116 115 178 179 200 199 
8 95 96 117 116 179 180 201 200 
8 96 97 118 117 180 181 202 201 
8 97 98 119 118 181 182 203 202 
8 98 99 120 119 182 183 204 203 
8 99 100 121 120 183 184 205 204 
8 100 101 122 121 184 185 206 205 
8 101 102 123 122 185 186 207 206 
8 102 103 124 123 186 187 208 207 
8 103 104 125 124 187 188 209 208 
8 105 106 127 126 189 190 211 210 
8 106 107 128 127 190 191 212 211 
8 107 108 129 128 191 192 213 212 
8 108 109 130 129 192 193 214 213 
8 109 110 131 130 193 194 215 214 
8 110 111 132 131 194 195 216 215 
8 111 112 133 132 195 196 217 216 
8 112 113 134 133 196 197 218 217 
8 113 114 135 134 197 198 219 218 
8 114 115 136 135 198 199 220 219 
8 115 116 137 136 199 200 221 220 
8 116 117 138 137 200 201 222 221 
8 117 118 139 138 201 202 223 222 
8 118 119 140 139 202 203 224 223 
8 119 120 141 140 203 204 225 224 
8 120 121 142 141 204 205 226 225 
8 121 122 143 142 205 206 227 226 
8 122 123 144 143 206 207 228 227 
8 123 124 145 144 207 208 229 228 
8 124 125 146 145 208 209 230 229 
8 126 127 148 147 210 211 232 231 
8 127 128 149 148 211 212 233 232 
8 128 129 150 149 212 213 234 233 
8 129 130 151 150 213 214 235 234 
8 130 131 152 151 214 215 236 235 
8 131 132 153 152 215 216 237 236 
8 132 133 154 153 216 217 238 237 
8 133 134 155 154 217 218 239 238 
8 134 135 156 155 218 219 240 239 
8 135 136 157 156 219 220 241 240 
8 136 137 158 157 220 221 242 241 
8 137 138 159 158 221 222 243 242 
8 138 139 160 159 222 223 244 243 
8 139 140 161 160 223 224 245 244 
8 140 141 162 161 224 225 246 245 
8 141 142 163 162 225 226 247 246 
8 142 143 164 163 226 227 248 247 
8 143 144 165 164 227 228 249 248 
8 144 145 166 165 228 229 250 249 
8 145 146 167 166 229 230 251 250 
8 168 169 190 189 252 253 274 273 
8 169 170 191 190 253 254 275 274 
8 170 171 192 191 254 255 276 275 
8 171 172 193 192 255 256 277 276 
8 172 173 194 193 256 257 278 277 
8 173 174 195 194 257 258 279 278 
8 174 175 196 195 258 259 280 279 
8 175 176 197 196 259 260 281 280 
8 176 177 198 197 260 261 282 281 
8 177 178 199 198 261 262 283 282 
8 178 179 200 199 262 263 284 283 
8 179 180 201 200 263 264 285 284 
8 180 181 202 201 264 265 286 285 
8 181 182 203 202 265 266 287 286 
8 182 183 204 203 266 267 288 287 
8 183 184 205 204 267 268 289 288 
8 184 185 206 205 268 269 290 289 
8 185 186 207 206 269 270 291 290 
8 186 187 208 207 270 271 292 291 
8 187 188 209 208 271 272 293 292 
8 189 190 211 210 273 274 295 294 
8 190 191 212 211 274 275 296 295 
8 191 192 213 212 275 276 297 296 
8 192 193 214 213 276 277 298 297 
8 193 194 215 214 277 278 299 298 
8 194 195 216 215 278 279 300 299 
8 195 196 217 216 279 280 301 300 
8 196 197 218 217 280 281 302 301 
8 197 198 219 218 281 282 303 302 
8 198 199 220 219 282 283 304 303 
8 199 200 221 220 283 284 305 304 
8 200 201 222 221 284 285 306 305 
8 201 202 223 222 285 286 307 306 
8 202 203 224 223 286 287 308 307 
8 203 204 225 224 287 288 309 308 
8 204 205 226 225 288 289 310 309 
8 205 206 227 226 289 290 311 310 
8 206 207 228 227 290 291 312 311 
8 207 208 229 228 291 292 313 312 
8 208 209 230 229 292 293 314 313 
8 210 211 232 231 294 295 316 315 
8 211 212 233 232 295 296 317 316 
8 212 213 234 233 296 297 318 317 
8 213 214 235 234 297 298 319 318 
8 214 215 236 235 298 299 320 319 
8 215 216 237 236 299 300 321 320 
8 216 217 238 237 300 301 322 321 
8 217 218 239 238 301 302 323 322 
8 218 219 240 239 302 303 324 323 
8 219 220 241 240 303 304 325 324 
8 220 221 242 241 304 305 326 325 
8 221 222 243 242 305 306 327 326 
8 222 223 244 243 306 307 328 327 
8 223 224 245 244 307 308 329 328 
8 224 225 246 245 308 309 330 329 
8 225 226 247 246 309 310 331 330 
8 226 227 248 247 310 311 332 331 
8 227 228 249 248 311 312 333 332 
8 228 229 250 249 312 313 334 333 
8 229 230 251 250 313 314 335 334 

CELL_TYPES 180
72
72
72
72
72
72
72
72
72
72
72
72
72
72
72
72
72
72
72
72
72
72
72
72
72
72
72
72
72
72
72
72
72
72
72
72
72
72
72
72
72
72
72
72
72
72
72
72
72
72
72
72
72
72
72
72
72
72
72
72
72
72
72
72
72
72
72
72
72
72
72
72
72
72
72
72
72
72
72
72
72
72
72
72
72
72
72
72
72
72
72
72
72
72
72
72
72
72
72
72
72
72
72
72
72
72
72
72
72
72
72
72
72
72
72
72
72
72
72
72
72
72
72
72
72
72
72
72
72
72
72
72
72
72
72
72
72
72
72
72
72
72
72
72
72
72
72
72
72
72
72
72
72
72
72
72
72
72
72
72
72
72
72
72
72
72
72
72
72
72
72
72
72
72
72
72
72
72
72
72

POINT_DATA 336
SCALARS point_var float 1
LOOKUP_TABLE default
0
1
2
3
4
5
6
7
8
9
10
11
12
13
14
15
16
17
18
19
20
21
22
23
24
25
26
27
28
29
30
31
32
33
34
35
36
37
38
39
40
41
42
43
44
45
46
47
48
49
50
51
52
53
54
55
56
57
58
59
60
61
62
63
64
65
66
67
68
69
70
71
72
73
74
75
76
77
78
79
80
81
82
83
84
85
86
87
88
89
90
91
92
93
94
95
96
97
98
99
100
101
102
103
104
105
106
107
108
109
110
111
112
113
114
115
116
117
118
119
120
121
122
123
124
125
126
127
128
129
130
131
132
133
134
135
136
137
138
139
140
141
142
143
144
145
146
147
148
149
150
151
152
153
154
155
156
157
158
159
160
161
162
163
164
165
166
167
168
169
170
171
172
173
174
175
176
177
178
179
180
181
182
183
184
185
186
187
188
189
190
191
192
193
194
195
196
197
198
199
200
201
202
203
204
205
206
207
208
209
210
211
212
213
214
215
216
217
218
219
220
221
222
223
224
225
226
227
228
229
230
231
232
233
234
235
236
237
238
239
240
241
242
243
244
245
246
247
248
249
250
251
252
253
254
255
256
257
258
259
260
261
262
263
264
265
266
267
268
269
270
271
272
273
274
275
276
277
278
279
280
281
282
283
284
285
286
287
288
289
290
291
292
293
294
295
296
297
298
299
300
301
302
303
304
305
306
307
308
309
310
311
312
313
314
315
316
317
318
319
320
321
322
323
324
325
326
327
328
329
330
331
332
333
334
335

VECTORS point_vec float
0 1 2
0 1 2
0 1 2
0 1 2
0 1 2
0 1 2
0 1 2
0 1 2
0 1 2
0 1 2
0 1 2
0 1 2
0 1 2
0 1 2
0 1 2
0 1 2
0 1 2
0 1 2
0 1 2
0 1 2
0 1 2
0 1 2
0 1 2
0 1 2
0 1 2
0 1 2
0 1 2
0 1 2
0 1 2
0 1 2
0 1 2
0 1 2
0 1 2
0 1 2
0 1 2
0 1 2
0 1 2
0 1 2
0 1 2
0 1 2
0 1 2
0 1 2
0 1 2
0 1 2
0 1 2
0 1 2
0 1 2
0 1 2
0 1 2
0 1 2
0 1 2
0 1 2
0 1 2
0 1 2
0 1 2
0 1 2
0 1 2
0 1 2
0 1 2
0 1 2
0 1 2
0 1 2
0 1 2
0 1 2
0 1 2
0 1 2
0 1 2
0 1 2
0 1 2
0 1 2
0 1 2
0 1 2
0 1 2
0 1 2
0 1 2
0 1 2
0 1 2
0 1 2
0 1 2
0 1 2
0 1 2
0 1 2
0 1 2
0 1 2
0 1 2
0 1 2
0 1 2
0 1 2
0 1 2
0 1 2
0 1 2
0 1 2
0 1 2
0 1 2
0 1 2
0 1 2
0 1 2
0 1 2
0 1 2
0 1 2
0 1 2
0 1 2
0 1 2
0 1 2
0 1 2
0 1 2
0 1 2
0 1 2
0 1 2
0 1 2
0 1 2
0 1 2
0 1 2
0 1 2
0 1 2
0 1 2
0 1 2
0 1 2
0 1 2
0 1 2
0 1 2
0 1 2
0 1 2
0 1 2
0 1 2
0 1 2
0 1 2
0 1 2
0 1 2
0 1 2
0 1 2
0 1 2
0 1 2
0 1 2
0 1 2
0 1 2
0 1 2
0 1 2
0 1 2
0 1 2
0 1 2
0 1 2
0 1 2
0 1 2
0 1 2
0 1 2
0 1 2
0 1 2
0 1 2
0 1 2
0 1 2
0 1 2
0 1 2
0 1 2
0 1 2
0 1 2
0 1 2
0 1 2
0 1 2
0 1 2
0 1 2
0 1 2
0 1 2
0 1 2
0 1 2
0 1 2
0 1 2
0 1 2
0 1 2
0 1 2
0 1 2
0 1 2
0 1 2
0 1 2
0 1 2
0 1 2
0 1 2
0 1 2
0 1 2
0 1 2
0 1 2
0 1 2
0 1 2
0 1 2
0 1 2
0 1 2
0 1 2
0 1 2
0 1 2
0 1 2
0 1 2
0 1 2
0 1 2
0 1 2
0 1 2
0 1 2
0 1 2
0 1 2
0 1 2
0 1 2
0 1 2
0 1 2
0 1 2
0 1 2
0 1 2
0 1 2
0 1 2
0 1 2
0 1 2
0 1 2
0 1 2
0 1 2
0 1 2
0 1 2
0 1 2
0 1 2
0 1 2
0 1 2
0 1 2
0 1 2
0 1 2
0 1 2
0 1 2
0 1 2
0 1 2
0 1 2
0 1 2
0 1 2
0 1 2
0 1 2
0 1 2
0 1 2
0 1 2
0 1 2
0 1 2
0 1 2
0 1 2
0 1 2
0 1 2
0 1 2
0 1 2
0 1 2
0 1 2
0 1 2
0 1 2
0 1 2
0 1 2
0 1 2
0 1 2
0 1 2
0 1 2
0 1 2
0 1 2
0 1 2
0 1 2
0 1 2
0 1 2
0 1 2
0 1 2
0 1 2
0 1 2
0 1 2
0 1 2
0 1 2
0 1 2
0 1 2
0 1 2
0 1 2
0 1 2
0 1 2
0 1 2
0 1 2
0 1 2
0 1 2
0 1 2
0 1 2
0 1 2
0 1 2
0 1 2
0 1 2
0 1 2
0 1 2
0 1 2
0 1 2
0 1 2
0 1 2
0 1 2
0 1 2
0 1 2
0 1 2
0 1 2
0 1 2
0 1 2
0 1 2
0 1 2
0 1 2
0 1 2
0 1 2
0 1 2
0 1 2
0 1 2
0 1 2
0 1 2
0 1 2
0 1 2
0 1 2
0 1 2
0 1 2
0 1 2
0 1 2
0 1 2
0 1 2
0 1 2
0 1 2
0 1 2
0 1 2
0 1 2
0 1 2
0 1 2
0 1 2
0 1 2
0 1 2
0 1 2
0 1 2
0 1 2
0 1 2
0 1 2
0 1 2
0 1 2
0 1 2
0 1 2
0 1 2
0 1 2
0 1 2
0 1 2
0 1 2

CELL_DATA 180
SCALARS elem_var float 1
LOOKUP_TABLE default 
0
1
2
3
4
5
6
7
8
9
10
11
12
13
14
15
16
17
18
19
20
21
22
23
24
25
26
27
28
29
30
31
32
33
34
35
36
37
38
39
40
41
42
43
44
45
46
47
48
49
50
51
52
53
54
55
56
57
58
59
60
61
62
63
64
65
66
67
68
69
70
71
72
73
74
75
76
77
78
79
80
81
82
83
84
85
86
87
88
89
90
91
92
93
94
95
96
97
98
99
100
101
102
103
104
105
106
107
108
109
110
111
112
113
114
115
116
117
118
119
120
121
122
123
124
125
126
127
128
129
130
131
132
133
134
135
136
137
138
139
140
141
142
143
144
145
146
147
148
149
150
151
152
153
154
155
156
157
158
159
160
161
162
163
164
165
166
167
168
169
170
171
172
173
174
175
176
177
178
179

SCALARS elem_var2 float 1
LOOKUP_TABLE default 
0
18446744073709551615
18446744073709551614
18446744073709551613
18446744073709551612
18446744073709551611
18446744073709551610
18446744073709551609
18446744073709551608
18446744073709551607
18446744073709551606
18446744073709551605
18446744073709551604
18446744073709551603
18446744073709551602
18446744073709551601
18446744073709551600
18446744073709551599
18446744073709551598
18446744073709551597
18446744073709551596
18446744073709551595
18446744073709551594
18446744073709551593
18446744073709551592
18446744073709551591
18446744073709551590
18446744073709551589
18446744073709551588
18446744073709551587
18446744073709551586
18446744073709551585
18446744073709551584
18446744073709551583
18446744073709551582
18446744073709551581
18446744073709551580
18446744073709551579
18446744073709551578
18446744073709551577
18446744073709551576
18446744073709551575
18446744073709551574
18446744073709551573
18446744073709551572
18446744073709551571
18446744073709551570
18446744073709551569
18446744073709551568
18446744073709551567
18446744073709551566
18446744073709551565
18446744073709551564
18446744073709551563
18446744073709551562
18446744073709551561
18446744073709551560
18446744073709551559
18446744073709551558
18446744073709551557
18446744073709551556
18446744073709551555
18446744073709551554
18446744073709551553
18446744073709551552
18446744073709551551
18446744073709551550
18446744073709551549
18446744073709551548
18446744073709551547
18446744073709551546
18446744073709551545
18446744073709551544
18446744073709551543
18446744073709551542
18446744073709551541
18446744073709551540
18446744073709551539
18446744073709551538
18446744073709551537
18446744073709551536
18446744073709551535
18446744073709551534
18446744073709551533
18446744073709551532
18446744073709551531
18446744073709551530
18446744073709551529
18446744073709551528
18446744073709551527
18446744073709551526
18446744073709551525
18446744073709551524
18446744073709551523
18446744073709551522
18446744073709551521
18446744073709551520
18446744073709551519
18446744073709551518
18446744073709551517
18446744073709551516
18446744073709551515
18446744073709551514
18446744073709551513
18446744073709551512
18446744073709551511
18446744073709551510
18446744073709551509
18446744073709551508
18446744073709551507
18446744073709551506
18446744073709551505
18446744073709551504
18446744073709551503
18446744073709551502
18446744073709551501
18446744073709551500
18446744073709551499
18446744073709551498
18446744073709551497
18446744073709551496
18446744073709551495
18446744073709551494
18446744073709551493
18446744073709551492
18446744073709551491
18446744073709551490
18446744073709551489
18446744073709551488
18446744073709551487
18446744073709551486
18446744073709551485
18446744073709551484
18446744073709551483
18446744073709551482
18446744073709551481
18446744073709551480
18446744073709551479
18446744073709551478
18446744073709551477
18446744073709551476
18446744073709551475
18446744073709551474
18446744073709551473
18446744073709551472
18446744073709551471
18446744073709551470
18446744073709551469
18446744073709551468
18446744073709551467
18446744073709551466
18446744073709551465
18446744073709551464
18446744073709551463
18446744073709551462
18446744073709551461
18446744073709551460
18446744073709551459
18446744073709551458
18446744073709551457
18446744073709551456
18446744073709551455
18446744073709551454
18446744073709551453
18446744073709551452
18446744073709551451
18446744073709551450
18446744073709551449
18446744073709551448
18446744073709551447
18446744073709551446
18446744073709551445
18446744073709551444
18446744073709551443
18446744073709551442
18446744073709551441
18446744073709551440
18446744073709551439
18446744073709551438
18446744073709551437
