# vtk DataFile Version 2.0
Mesh for Fierro
ASCII
DATASET UNSTRUCTURED_GRID

POINTS 336 float
0 0 0 
0.0333333 0 0 
0.0666667 0 0 
0.1 0 0 
0 0.0333333 0 
0.0333333 0.0333333 0 
0.0666667 0.0333333 0 
0.1 0.0333333 0 
0 0.0666667 0 
0.0333333 0.0666667 0 
0.0666667 0.0666667 0 
0.1 0.0666667 0 
0 0.1 0 
0.0333333 0.1 0 
0.0666667 0.1 0 
0.1 0.1 0 
0 0 0.05 
0.0333333 0 0.05 
0.0666667 0 0.05 
0.1 0 0.05 
0 0.0333333 0.05 
0.0333333 0.0333333 0.05 
0.0666667 0.0333333 0.05 
0.1 0.0333333 0.05 
0 0.0666667 0.05 
0.0333333 0.0666667 0.05 
0.0666667 0.0666667 0.05 
0.1 0.0666667 0.05 
0 0.1 0.05 
0.0333333 0.1 0.05 
0.0666667 0.1 0.05 
0.1 0.1 0.05 
0 0 0.1 
0.0333333 0 0.1 
0.0666667 0 0.1 
0.1 0 0.1 
0 0.0333333 0.1 
0.0333333 0.0333333 0.1 
0.0666667 0.0333333 0.1 
0.1 0.0333333 0.1 
0 0.0666667 0.1 
0.0333333 0.0666667 0.1 
0.0666667 0.0666667 0.1 
0.1 0.0666667 0.1 
0 0.1 0.1 
0.0333333 0.1 0.1 
0.0666667 0.1 0.1 
0.1 0.1 0.1 
0 0 0.15 
0.0333333 0 0.15 
0.0666667 0 0.15 
0.1 0 0.15 
0 0.0333333 0.15 
0.0333333 0.0333333 0.15 
0.0666667 0.0333333 0.15 
0.1 0.0333333 0.15 
0 0.0666667 0.15 
0.0333333 0.0666667 0.15 
0.0666667 0.0666667 0.15 
0.1 0.0666667 0.15 
0 0.1 0.15 
0.0333333 0.1 0.15 
0.0666667 0.1 0.15 
0.1 0.1 0.15 
0 0 0.2 
0.0333333 0 0.2 
0.0666667 0 0.2 
0.1 0 0.2 
0 0.0333333 0.2 
0.0333333 0.0333333 0.2 
0.0666667 0.0333333 0.2 
0.1 0.0333333 0.2 
0 0.0666667 0.2 
0.0333333 0.0666667 0.2 
0.0666667 0.0666667 0.2 
0.1 0.0666667 0.2 
0 0.1 0.2 
0.0333333 0.1 0.2 
0.0666667 0.1 0.2 
0.1 0.1 0.2 
0 0 0.25 
0.0333333 0 0.25 
0.0666667 0 0.25 
0.1 0 0.25 
0 0.0333333 0.25 
0.0333333 0.0333333 0.25 
0.0666667 0.0333333 0.25 
0.1 0.0333333 0.25 
0 0.0666667 0.25 
0.0333333 0.0666667 0.25 
0.0666667 0.0666667 0.25 
0.1 0.0666667 0.25 
0 0.1 0.25 
0.0333333 0.1 0.25 
0.0666667 0.1 0.25 
0.1 0.1 0.25 
0 0 0.3 
0.0333333 0 0.3 
0.0666667 0 0.3 
0.1 0 0.3 
0 0.0333333 0.3 
0.0333333 0.0333333 0.3 
0.0666667 0.0333333 0.3 
0.1 0.0333333 0.3 
0 0.0666667 0.3 
0.0333333 0.0666667 0.3 
0.0666667 0.0666667 0.3 
0.1 0.0666667 0.3 
0 0.1 0.3 
0.0333333 0.1 0.3 
0.0666667 0.1 0.3 
0.1 0.1 0.3 
0 0 0.35 
0.0333333 0 0.35 
0.0666667 0 0.35 
0.1 0 0.35 
0 0.0333333 0.35 
0.0333333 0.0333333 0.35 
0.0666667 0.0333333 0.35 
0.1 0.0333333 0.35 
0 0.0666667 0.35 
0.0333333 0.0666667 0.35 
0.0666667 0.0666667 0.35 
0.1 0.0666667 0.35 
0 0.1 0.35 
0.0333333 0.1 0.35 
0.0666667 0.1 0.35 
0.1 0.1 0.35 
0 0 0.4 
0.0333333 0 0.4 
0.0666667 0 0.4 
0.1 0 0.4 
0 0.0333333 0.4 
0.0333333 0.0333333 0.4 
0.0666667 0.0333333 0.4 
0.1 0.0333333 0.4 
0 0.0666667 0.4 
0.0333333 0.0666667 0.4 
0.0666667 0.0666667 0.4 
0.1 0.0666667 0.4 
0 0.1 0.4 
0.0333333 0.1 0.4 
0.0666667 0.1 0.4 
0.1 0.1 0.4 
0 0 0.45 
0.0333333 0 0.45 
0.0666667 0 0.45 
0.1 0 0.45 
0 0.0333333 0.45 
0.0333333 0.0333333 0.45 
0.0666667 0.0333333 0.45 
0.1 0.0333333 0.45 
0 0.0666667 0.45 
0.0333333 0.0666667 0.45 
0.0666667 0.0666667 0.45 
0.1 0.0666667 0.45 
0 0.1 0.45 
0.0333333 0.1 0.45 
0.0666667 0.1 0.45 
0.1 0.1 0.45 
0 0 0.5 
0.0333333 0 0.5 
0.0666667 0 0.5 
0.1 0 0.5 
0 0.0333333 0.5 
0.0333333 0.0333333 0.5 
0.0666667 0.0333333 0.5 
0.1 0.0333333 0.5 
0 0.0666667 0.5 
0.0333333 0.0666667 0.5 
0.0666667 0.0666667 0.5 
0.1 0.0666667 0.5 
0 0.1 0.5 
0.0333333 0.1 0.5 
0.0666667 0.1 0.5 
0.1 0.1 0.5 
0 0 0.55 
0.0333333 0 0.55 
0.0666667 0 0.55 
0.1 0 0.55 
0 0.0333333 0.55 
0.0333333 0.0333333 0.55 
0.0666667 0.0333333 0.55 
0.1 0.0333333 0.55 
0 0.0666667 0.55 
0.0333333 0.0666667 0.55 
0.0666667 0.0666667 0.55 
0.1 0.0666667 0.55 
0 0.1 0.55 
0.0333333 0.1 0.55 
0.0666667 0.1 0.55 
0.1 0.1 0.55 
0 0 0.6 
0.0333333 0 0.6 
0.0666667 0 0.6 
0.1 0 0.6 
0 0.0333333 0.6 
0.0333333 0.0333333 0.6 
0.0666667 0.0333333 0.6 
0.1 0.0333333 0.6 
0 0.0666667 0.6 
0.0333333 0.0666667 0.6 
0.0666667 0.0666667 0.6 
0.1 0.0666667 0.6 
0 0.1 0.6 
0.0333333 0.1 0.6 
0.0666667 0.1 0.6 
0.1 0.1 0.6 
0 0 0.65 
0.0333333 0 0.65 
0.0666667 0 0.65 
0.1 0 0.65 
0 0.0333333 0.65 
0.0333333 0.0333333 0.65 
0.0666667 0.0333333 0.65 
0.1 0.0333333 0.65 
0 0.0666667 0.65 
0.0333333 0.0666667 0.65 
0.0666667 0.0666667 0.65 
0.1 0.0666667 0.65 
0 0.1 0.65 
0.0333333 0.1 0.65 
0.0666667 0.1 0.65 
0.1 0.1 0.65 
0 0 0.7 
0.0333333 0 0.7 
0.0666667 0 0.7 
0.1 0 0.7 
0 0.0333333 0.7 
0.0333333 0.0333333 0.7 
0.0666667 0.0333333 0.7 
0.1 0.0333333 0.7 
0 0.0666667 0.7 
0.0333333 0.0666667 0.7 
0.0666667 0.0666667 0.7 
0.1 0.0666667 0.7 
0 0.1 0.7 
0.0333333 0.1 0.7 
0.0666667 0.1 0.7 
0.1 0.1 0.7 
0 0 0.75 
0.0333333 0 0.75 
0.0666667 0 0.75 
0.1 0 0.75 
0 0.0333333 0.75 
0.0333333 0.0333333 0.75 
0.0666667 0.0333333 0.75 
0.1 0.0333333 0.75 
0 0.0666667 0.75 
0.0333333 0.0666667 0.75 
0.0666667 0.0666667 0.75 
0.1 0.0666667 0.75 
0 0.1 0.75 
0.0333333 0.1 0.75 
0.0666667 0.1 0.75 
0.1 0.1 0.75 
0 0 0.8 
0.0333333 0 0.8 
0.0666667 0 0.8 
0.1 0 0.8 
0 0.0333333 0.8 
0.0333333 0.0333333 0.8 
0.0666667 0.0333333 0.8 
0.1 0.0333333 0.8 
0 0.0666667 0.8 
0.0333333 0.0666667 0.8 
0.0666667 0.0666667 0.8 
0.1 0.0666667 0.8 
0 0.1 0.8 
0.0333333 0.1 0.8 
0.0666667 0.1 0.8 
0.1 0.1 0.8 
0 0 0.85 
0.0333333 0 0.85 
0.0666667 0 0.85 
0.1 0 0.85 
0 0.0333333 0.85 
0.0333333 0.0333333 0.85 
0.0666667 0.0333333 0.85 
0.1 0.0333333 0.85 
0 0.0666667 0.85 
0.0333333 0.0666667 0.85 
0.0666667 0.0666667 0.85 
0.1 0.0666667 0.85 
0 0.1 0.85 
0.0333333 0.1 0.85 
0.0666667 0.1 0.85 
0.1 0.1 0.85 
0 0 0.9 
0.0333333 0 0.9 
0.0666667 0 0.9 
0.1 0 0.9 
0 0.0333333 0.9 
0.0333333 0.0333333 0.9 
0.0666667 0.0333333 0.9 
0.1 0.0333333 0.9 
0 0.0666667 0.9 
0.0333333 0.0666667 0.9 
0.0666667 0.0666667 0.9 
0.1 0.0666667 0.9 
0 0.1 0.9 
0.0333333 0.1 0.9 
0.0666667 0.1 0.9 
0.1 0.1 0.9 
0 0 0.95 
0.0333333 0 0.95 
0.0666667 0 0.95 
0.1 0 0.95 
0 0.0333333 0.95 
0.0333333 0.0333333 0.95 
0.0666667 0.0333333 0.95 
0.1 0.0333333 0.95 
0 0.0666667 0.95 
0.0333333 0.0666667 0.95 
0.0666667 0.0666667 0.95 
0.1 0.0666667 0.95 
0 0.1 0.95 
0.0333333 0.1 0.95 
0.0666667 0.1 0.95 
0.1 0.1 0.95 
0 0 1 
0.0333333 0 1 
0.0666667 0 1 
0.1 0 1 
0 0.0333333 1 
0.0333333 0.0333333 1 
0.0666667 0.0333333 1 
0.1 0.0333333 1 
0 0.0666667 1 
0.0333333 0.0666667 1 
0.0666667 0.0666667 1 
0.1 0.0666667 1 
0 0.1 1 
0.0333333 0.1 1 
0.0666667 0.1 1 
0.1 0.1 1 

CELLS 180 1620
8 0 1 5 4 16 17 21 20 
8 1 2 6 5 17 18 22 21 
8 2 3 7 6 18 19 23 22 
8 4 5 9 8 20 21 25 24 
8 5 6 10 9 21 22 26 25 
8 6 7 11 10 22 23 27 26 
8 8 9 13 12 24 25 29 28 
8 9 10 14 13 25 26 30 29 
8 10 11 15 14 26 27 31 30 
8 16 17 21 20 32 33 37 36 
8 17 18 22 21 33 34 38 37 
8 18 19 23 22 34 35 39 38 
8 20 21 25 24 36 37 41 40 
8 21 22 26 25 37 38 42 41 
8 22 23 27 26 38 39 43 42 
8 24 25 29 28 40 41 45 44 
8 25 26 30 29 41 42 46 45 
8 26 27 31 30 42 43 47 46 
8 32 33 37 36 48 49 53 52 
8 33 34 38 37 49 50 54 53 
8 34 35 39 38 50 51 55 54 
8 36 37 41 40 52 53 57 56 
8 37 38 42 41 53 54 58 57 
8 38 39 43 42 54 55 59 58 
8 40 41 45 44 56 57 61 60 
8 41 42 46 45 57 58 62 61 
8 42 43 47 46 58 59 63 62 
8 48 49 53 52 64 65 69 68 
8 49 50 54 53 65 66 70 69 
8 50 51 55 54 66 67 71 70 
8 52 53 57 56 68 69 73 72 
8 53 54 58 57 69 70 74 73 
8 54 55 59 58 70 71 75 74 
8 56 57 61 60 72 73 77 76 
8 57 58 62 61 73 74 78 77 
8 58 59 63 62 74 75 79 78 
8 64 65 69 68 80 81 85 84 
8 65 66 70 69 81 82 86 85 
8 66 67 71 70 82 83 87 86 
8 68 69 73 72 84 85 89 88 
8 69 70 74 73 85 86 90 89 
8 70 71 75 74 86 87 91 90 
8 72 73 77 76 88 89 93 92 
8 73 74 78 77 89 90 94 93 
8 74 75 79 78 90 91 95 94 
8 80 81 85 84 96 97 101 100 
8 81 82 86 85 97 98 102 101 
8 82 83 87 86 98 99 103 102 
8 84 85 89 88 100 101 105 104 
8 85 86 90 89 101 102 106 105 
8 86 87 91 90 102 103 107 106 
8 88 89 93 92 104 105 109 108 
8 89 90 94 93 105 106 110 109 
8 90 91 95 94 106 107 111 110 
8 96 97 101 100 112 113 117 116 
8 97 98 102 101 113 114 118 117 
8 98 99 103 102 114 115 119 118 
8 100 101 105 104 116 117 121 120 
8 101 102 106 105 117 118 122 121 
8 102 103 107 106 118 119 123 122 
8 104 105 109 108 120 121 125 124 
8 105 106 110 109 121 122 126 125 
8 106 107 111 110 122 123 127 126 
8 112 113 117 116 128 129 133 132 
8 113 114 118 117 129 130 134 133 
8 114 115 119 118 130 131 135 134 
8 116 117 121 120 132 133 137 136 
8 117 118 122 121 133 134 138 137 
8 118 119 123 122 134 135 139 138 
8 120 121 125 124 136 137 141 140 
8 121 122 126 125 137 138 142 141 
8 122 123 127 126 138 139 143 142 
8 128 129 133 132 144 145 149 148 
8 129 130 134 133 145 146 150 149 
8 130 131 135 134 146 147 151 150 
8 132 133 137 136 148 149 153 152 
8 133 134 138 137 149 150 154 153 
8 134 135 139 138 150 151 155 154 
8 136 137 141 140 152 153 157 156 
8 137 138 142 141 153 154 158 157 
8 138 139 143 142 154 155 159 158 
8 144 145 149 148 160 161 165 164 
8 145 146 150 149 161 162 166 165 
8 146 147 151 150 162 163 167 166 
8 148 149 153 152 164 165 169 168 
8 149 150 154 153 165 166 170 169 
8 150 151 155 154 166 167 171 170 
8 152 153 157 156 168 169 173 172 
8 153 154 158 157 169 170 174 173 
8 154 155 159 158 170 171 175 174 
8 160 161 165 164 176 177 181 180 
8 161 162 166 165 177 178 182 181 
8 162 163 167 166 178 179 183 182 
8 164 165 169 168 180 181 185 184 
8 165 166 170 169 181 182 186 185 
8 166 167 171 170 182 183 187 186 
8 168 169 173 172 184 185 189 188 
8 169 170 174 173 185 186 190 189 
8 170 171 175 174 186 187 191 190 
8 176 177 181 180 192 193 197 196 
8 177 178 182 181 193 194 198 197 
8 178 179 183 182 194 195 199 198 
8 180 181 185 184 196 197 201 200 
8 181 182 186 185 197 198 202 201 
8 182 183 187 186 198 199 203 202 
8 184 185 189 188 200 201 205 204 
8 185 186 190 189 201 202 206 205 
8 186 187 191 190 202 203 207 206 
8 192 193 197 196 208 209 213 212 
8 193 194 198 197 209 210 214 213 
8 194 195 199 198 210 211 215 214 
8 196 197 201 200 212 213 217 216 
8 197 198 202 201 213 214 218 217 
8 198 199 203 202 214 215 219 218 
8 200 201 205 204 216 217 221 220 
8 201 202 206 205 217 218 222 221 
8 202 203 207 206 218 219 223 222 
8 208 209 213 212 224 225 229 228 
8 209 210 214 213 225 226 230 229 
8 210 211 215 214 226 227 231 230 
8 212 213 217 216 228 229 233 232 
8 213 214 218 217 229 230 234 233 
8 214 215 219 218 230 231 235 234 
8 216 217 221 220 232 233 237 236 
8 217 218 222 221 233 234 238 237 
8 218 219 223 222 234 235 239 238 
8 224 225 229 228 240 241 245 244 
8 225 226 230 229 241 242 246 245 
8 226 227 231 230 242 243 247 246 
8 228 229 233 232 244 245 249 248 
8 229 230 234 233 245 246 250 249 
8 230 231 235 234 246 247 251 250 
8 232 233 237 236 248 249 253 252 
8 233 234 238 237 249 250 254 253 
8 234 235 239 238 250 251 255 254 
8 240 241 245 244 256 257 261 260 
8 241 242 246 245 257 258 262 261 
8 242 243 247 246 258 259 263 262 
8 244 245 249 248 260 261 265 264 
8 245 246 250 249 261 262 266 265 
8 246 247 251 250 262 263 267 266 
8 248 249 253 252 264 265 269 268 
8 249 250 254 253 265 266 270 269 
8 250 251 255 254 266 267 271 270 
8 256 257 261 260 272 273 277 276 
8 257 258 262 261 273 274 278 277 
8 258 259 263 262 274 275 279 278 
8 260 261 265 264 276 277 281 280 
8 261 262 266 265 277 278 282 281 
8 262 263 267 266 278 279 283 282 
8 264 265 269 268 280 281 285 284 
8 265 266 270 269 281 282 286 285 
8 266 267 271 270 282 283 287 286 
8 272 273 277 276 288 289 293 292 
8 273 274 278 277 289 290 294 293 
8 274 275 279 278 290 291 295 294 
8 276 277 281 280 292 293 297 296 
8 277 278 282 281 293 294 298 297 
8 278 279 283 282 294 295 299 298 
8 280 281 285 284 296 297 301 300 
8 281 282 286 285 297 298 302 301 
8 282 283 287 286 298 299 303 302 
8 288 289 293 292 304 305 309 308 
8 289 290 294 293 305 306 310 309 
8 290 291 295 294 306 307 311 310 
8 292 293 297 296 308 309 313 312 
8 293 294 298 297 309 310 314 313 
8 294 295 299 298 310 311 315 314 
8 296 297 301 300 312 313 317 316 
8 297 298 302 301 313 314 318 317 
8 298 299 303 302 314 315 319 318 
8 304 305 309 308 320 321 325 324 
8 305 306 310 309 321 322 326 325 
8 306 307 311 310 322 323 327 326 
8 308 309 313 312 324 325 329 328 
8 309 310 314 313 325 326 330 329 
8 310 311 315 314 326 327 331 330 
8 312 313 317 316 328 329 333 332 
8 313 314 318 317 329 330 334 333 
8 314 315 319 318 330 331 335 334 

CELL_TYPES 180
72
72
72
72
72
72
72
72
72
72
72
72
72
72
72
72
72
72
72
72
72
72
72
72
72
72
72
72
72
72
72
72
72
72
72
72
72
72
72
72
72
72
72
72
72
72
72
72
72
72
72
72
72
72
72
72
72
72
72
72
72
72
72
72
72
72
72
72
72
72
72
72
72
72
72
72
72
72
72
72
72
72
72
72
72
72
72
72
72
72
72
72
72
72
72
72
72
72
72
72
72
72
72
72
72
72
72
72
72
72
72
72
72
72
72
72
72
72
72
72
72
72
72
72
72
72
72
72
72
72
72
72
72
72
72
72
72
72
72
72
72
72
72
72
72
72
72
72
72
72
72
72
72
72
72
72
72
72
72
72
72
72
72
72
72
72
72
72
72
72
72
72
72
72
72
72
72
72
72
72

POINT_DATA 336
SCALARS point_var float 1
LOOKUP_TABLE default
0
1
2
3
4
5
6
7
8
9
10
11
12
13
14
15
16
17
18
19
20
21
22
23
24
25
26
27
28
29
30
31
32
33
34
35
36
37
38
39
40
41
42
43
44
45
46
47
48
49
50
51
52
53
54
55
56
57
58
59
60
61
62
63
64
65
66
67
68
69
70
71
72
73
74
75
76
77
78
79
80
81
82
83
84
85
86
87
88
89
90
91
92
93
94
95
96
97
98
99
100
101
102
103
104
105
106
107
108
109
110
111
112
113
114
115
116
117
118
119
120
121
122
123
124
125
126
127
128
129
130
131
132
133
134
135
136
137
138
139
140
141
142
143
144
145
146
147
148
149
150
151
152
153
154
155
156
157
158
159
160
161
162
163
164
165
166
167
168
169
170
171
172
173
174
175
176
177
178
179
180
181
182
183
184
185
186
187
188
189
190
191
192
193
194
195
196
197
198
199
200
201
202
203
204
205
206
207
208
209
210
211
212
213
214
215
216
217
218
219
220
221
222
223
224
225
226
227
228
229
230
231
232
233
234
235
236
237
238
239
240
241
242
243
244
245
246
247
248
249
250
251
252
253
254
255
256
257
258
259
260
261
262
263
264
265
266
267
268
269
270
271
272
273
274
275
276
277
278
279
280
281
282
283
284
285
286
287
288
289
290
291
292
293
294
295
296
297
298
299
300
301
302
303
304
305
306
307
308
309
310
311
312
313
314
315
316
317
318
319
320
321
322
323
324
325
326
327
328
329
330
331
332
333
334
335

VECTORS point_vec float
0 1 2
0 1 2
0 1 2
0 1 2
0 1 2
0 1 2
0 1 2
0 1 2
0 1 2
0 1 2
0 1 2
0 1 2
0 1 2
0 1 2
0 1 2
0 1 2
0 1 2
0 1 2
0 1 2
0 1 2
0 1 2
0 1 2
0 1 2
0 1 2
0 1 2
0 1 2
0 1 2
0 1 2
0 1 2
0 1 2
0 1 2
0 1 2
0 1 2
0 1 2
0 1 2
0 1 2
0 1 2
0 1 2
0 1 2
0 1 2
0 1 2
0 1 2
0 1 2
0 1 2
0 1 2
0 1 2
0 1 2
0 1 2
0 1 2
0 1 2
0 1 2
0 1 2
0 1 2
0 1 2
0 1 2
0 1 2
0 1 2
0 1 2
0 1 2
0 1 2
0 1 2
0 1 2
0 1 2
0 1 2
0 1 2
0 1 2
0 1 2
0 1 2
0 1 2
0 1 2
0 1 2
0 1 2
0 1 2
0 1 2
0 1 2
0 1 2
0 1 2
0 1 2
0 1 2
0 1 2
0 1 2
0 1 2
0 1 2
0 1 2
0 1 2
0 1 2
0 1 2
0 1 2
0 1 2
0 1 2
0 1 2
0 1 2
0 1 2
0 1 2
0 1 2
0 1 2
0 1 2
0 1 2
0 1 2
0 1 2
0 1 2
0 1 2
0 1 2
0 1 2
0 1 2
0 1 2
0 1 2
0 1 2
0 1 2
0 1 2
0 1 2
0 1 2
0 1 2
0 1 2
0 1 2
0 1 2
0 1 2
0 1 2
0 1 2
0 1 2
0 1 2
0 1 2
0 1 2
0 1 2
0 1 2
0 1 2
0 1 2
0 1 2
0 1 2
0 1 2
0 1 2
0 1 2
0 1 2
0 1 2
0 1 2
0 1 2
0 1 2
0 1 2
0 1 2
0 1 2
0 1 2
0 1 2
0 1 2
0 1 2
0 1 2
0 1 2
0 1 2
0 1 2
0 1 2
0 1 2
0 1 2
0 1 2
0 1 2
0 1 2
0 1 2
0 1 2
0 1 2
0 1 2
0 1 2
0 1 2
0 1 2
0 1 2
0 1 2
0 1 2
0 1 2
0 1 2
0 1 2
0 1 2
0 1 2
0 1 2
0 1 2
0 1 2
0 1 2
0 1 2
0 1 2
0 1 2
0 1 2
0 1 2
0 1 2
0 1 2
0 1 2
0 1 2
0 1 2
0 1 2
0 1 2
0 1 2
0 1 2
0 1 2
0 1 2
0 1 2
0 1 2
0 1 2
0 1 2
0 1 2
0 1 2
0 1 2
0 1 2
0 1 2
0 1 2
0 1 2
0 1 2
0 1 2
0 1 2
0 1 2
0 1 2
0 1 2
0 1 2
0 1 2
0 1 2
0 1 2
0 1 2
0 1 2
0 1 2
0 1 2
0 1 2
0 1 2
0 1 2
0 1 2
0 1 2
0 1 2
0 1 2
0 1 2
0 1 2
0 1 2
0 1 2
0 1 2
0 1 2
0 1 2
0 1 2
0 1 2
0 1 2
0 1 2
0 1 2
0 1 2
0 1 2
0 1 2
0 1 2
0 1 2
0 1 2
0 1 2
0 1 2
0 1 2
0 1 2
0 1 2
0 1 2
0 1 2
0 1 2
0 1 2
0 1 2
0 1 2
0 1 2
0 1 2
0 1 2
0 1 2
0 1 2
0 1 2
0 1 2
0 1 2
0 1 2
0 1 2
0 1 2
0 1 2
0 1 2
0 1 2
0 1 2
0 1 2
0 1 2
0 1 2
0 1 2
0 1 2
0 1 2
0 1 2
0 1 2
0 1 2
0 1 2
0 1 2
0 1 2
0 1 2
0 1 2
0 1 2
0 1 2
0 1 2
0 1 2
0 1 2
0 1 2
0 1 2
0 1 2
0 1 2
0 1 2
0 1 2
0 1 2
0 1 2
0 1 2
0 1 2
0 1 2
0 1 2
0 1 2
0 1 2
0 1 2
0 1 2
0 1 2
0 1 2
0 1 2
0 1 2
0 1 2
0 1 2
0 1 2
0 1 2
0 1 2
0 1 2
0 1 2
0 1 2
0 1 2
0 1 2
0 1 2
0 1 2
0 1 2
0 1 2
0 1 2
0 1 2
0 1 2
0 1 2
0 1 2
0 1 2
0 1 2
0 1 2
0 1 2
0 1 2
0 1 2
0 1 2
0 1 2
0 1 2
0 1 2
0 1 2
0 1 2
0 1 2

CELL_DATA 180
SCALARS elem_var float 1
LOOKUP_TABLE default 
0
1
2
3
4
5
6
7
8
9
10
11
12
13
14
15
16
17
18
19
20
21
22
23
24
25
26
27
28
29
30
31
32
33
34
35
36
37
38
39
40
41
42
43
44
45
46
47
48
49
50
51
52
53
54
55
56
57
58
59
60
61
62
63
64
65
66
67
68
69
70
71
72
73
74
75
76
77
78
79
80
81
82
83
84
85
86
87
88
89
90
91
92
93
94
95
96
97
98
99
100
101
102
103
104
105
106
107
108
109
110
111
112
113
114
115
116
117
118
119
120
121
122
123
124
125
126
127
128
129
130
131
132
133
134
135
136
137
138
139
140
141
142
143
144
145
146
147
148
149
150
151
152
153
154
155
156
157
158
159
160
161
162
163
164
165
166
167
168
169
170
171
172
173
174
175
176
177
178
179

SCALARS elem_var2 float 1
LOOKUP_TABLE default 
0
18446744073709551615
18446744073709551614
18446744073709551613
18446744073709551612
18446744073709551611
18446744073709551610
18446744073709551609
18446744073709551608
18446744073709551607
18446744073709551606
18446744073709551605
18446744073709551604
18446744073709551603
18446744073709551602
18446744073709551601
18446744073709551600
18446744073709551599
18446744073709551598
18446744073709551597
18446744073709551596
18446744073709551595
18446744073709551594
18446744073709551593
18446744073709551592
18446744073709551591
18446744073709551590
18446744073709551589
18446744073709551588
18446744073709551587
18446744073709551586
18446744073709551585
18446744073709551584
18446744073709551583
18446744073709551582
18446744073709551581
18446744073709551580
18446744073709551579
18446744073709551578
18446744073709551577
18446744073709551576
18446744073709551575
18446744073709551574
18446744073709551573
18446744073709551572
18446744073709551571
18446744073709551570
18446744073709551569
18446744073709551568
18446744073709551567
18446744073709551566
18446744073709551565
18446744073709551564
18446744073709551563
18446744073709551562
18446744073709551561
18446744073709551560
18446744073709551559
18446744073709551558
18446744073709551557
18446744073709551556
18446744073709551555
18446744073709551554
18446744073709551553
18446744073709551552
18446744073709551551
18446744073709551550
18446744073709551549
18446744073709551548
18446744073709551547
18446744073709551546
18446744073709551545
18446744073709551544
18446744073709551543
18446744073709551542
18446744073709551541
18446744073709551540
18446744073709551539
18446744073709551538
18446744073709551537
18446744073709551536
18446744073709551535
18446744073709551534
18446744073709551533
18446744073709551532
18446744073709551531
18446744073709551530
18446744073709551529
18446744073709551528
18446744073709551527
18446744073709551526
18446744073709551525
18446744073709551524
18446744073709551523
18446744073709551522
18446744073709551521
18446744073709551520
18446744073709551519
18446744073709551518
18446744073709551517
18446744073709551516
18446744073709551515
18446744073709551514
18446744073709551513
18446744073709551512
18446744073709551511
18446744073709551510
18446744073709551509
18446744073709551508
18446744073709551507
18446744073709551506
18446744073709551505
18446744073709551504
18446744073709551503
18446744073709551502
18446744073709551501
18446744073709551500
18446744073709551499
18446744073709551498
18446744073709551497
18446744073709551496
18446744073709551495
18446744073709551494
18446744073709551493
18446744073709551492
18446744073709551491
18446744073709551490
18446744073709551489
18446744073709551488
18446744073709551487
18446744073709551486
18446744073709551485
18446744073709551484
18446744073709551483
18446744073709551482
18446744073709551481
18446744073709551480
18446744073709551479
18446744073709551478
18446744073709551477
18446744073709551476
18446744073709551475
18446744073709551474
18446744073709551473
18446744073709551472
18446744073709551471
18446744073709551470
18446744073709551469
18446744073709551468
18446744073709551467
18446744073709551466
18446744073709551465
18446744073709551464
18446744073709551463
18446744073709551462
18446744073709551461
18446744073709551460
18446744073709551459
18446744073709551458
18446744073709551457
18446744073709551456
18446744073709551455
18446744073709551454
18446744073709551453
18446744073709551452
18446744073709551451
18446744073709551450
18446744073709551449
18446744073709551448
18446744073709551447
18446744073709551446
18446744073709551445
18446744073709551444
18446744073709551443
18446744073709551442
18446744073709551441
18446744073709551440
18446744073709551439
18446744073709551438
18446744073709551437
