# vtk DataFile Version 2.0
Mesh for Fierro
ASCII
DATASET UNSTRUCTURED_GRID

POINTS 369 float
0 0 0 
0.025 0 0 
0.05 0 0 
0.075 0 0 
0.1 0 0 
0.125 0 0 
0.15 0 0 
0.175 0 0 
0.2 0 0 
0.225 0 0 
0.25 0 0 
0.275 0 0 
0.3 0 0 
0.325 0 0 
0.35 0 0 
0.375 0 0 
0.4 0 0 
0.425 0 0 
0.45 0 0 
0.475 0 0 
0.5 0 0 
0.525 0 0 
0.55 0 0 
0.575 0 0 
0.6 0 0 
0.625 0 0 
0.65 0 0 
0.675 0 0 
0.7 0 0 
0.725 0 0 
0.75 0 0 
0.775 0 0 
0.8 0 0 
0.825 0 0 
0.85 0 0 
0.875 0 0 
0.9 0 0 
0.925 0 0 
0.95 0 0 
0.975 0 0 
1 0 0 
0 0.05 0 
0.025 0.05 0 
0.05 0.05 0 
0.075 0.05 0 
0.1 0.05 0 
0.125 0.05 0 
0.15 0.05 0 
0.175 0.05 0 
0.2 0.05 0 
0.225 0.05 0 
0.25 0.05 0 
0.275 0.05 0 
0.3 0.05 0 
0.325 0.05 0 
0.35 0.05 0 
0.375 0.05 0 
0.4 0.05 0 
0.425 0.05 0 
0.45 0.05 0 
0.475 0.05 0 
0.5 0.05 0 
0.525 0.05 0 
0.55 0.05 0 
0.575 0.05 0 
0.6 0.05 0 
0.625 0.05 0 
0.65 0.05 0 
0.675 0.05 0 
0.7 0.05 0 
0.725 0.05 0 
0.75 0.05 0 
0.775 0.05 0 
0.8 0.05 0 
0.825 0.05 0 
0.85 0.05 0 
0.875 0.05 0 
0.9 0.05 0 
0.925 0.05 0 
0.95 0.05 0 
0.975 0.05 0 
1 0.05 0 
0 0.1 0 
0.025 0.1 0 
0.05 0.1 0 
0.075 0.1 0 
0.1 0.1 0 
0.125 0.1 0 
0.15 0.1 0 
0.175 0.1 0 
0.2 0.1 0 
0.225 0.1 0 
0.25 0.1 0 
0.275 0.1 0 
0.3 0.1 0 
0.325 0.1 0 
0.35 0.1 0 
0.375 0.1 0 
0.4 0.1 0 
0.425 0.1 0 
0.45 0.1 0 
0.475 0.1 0 
0.5 0.1 0 
0.525 0.1 0 
0.55 0.1 0 
0.575 0.1 0 
0.6 0.1 0 
0.625 0.1 0 
0.65 0.1 0 
0.675 0.1 0 
0.7 0.1 0 
0.725 0.1 0 
0.75 0.1 0 
0.775 0.1 0 
0.8 0.1 0 
0.825 0.1 0 
0.85 0.1 0 
0.875 0.1 0 
0.9 0.1 0 
0.925 0.1 0 
0.95 0.1 0 
0.975 0.1 0 
1 0.1 0 
0 0 0.05 
0.025 0 0.05 
0.05 0 0.05 
0.075 0 0.05 
0.1 0 0.05 
0.125 0 0.05 
0.15 0 0.05 
0.175 0 0.05 
0.2 0 0.05 
0.225 0 0.05 
0.25 0 0.05 
0.275 0 0.05 
0.3 0 0.05 
0.325 0 0.05 
0.35 0 0.05 
0.375 0 0.05 
0.4 0 0.05 
0.425 0 0.05 
0.45 0 0.05 
0.475 0 0.05 
0.5 0 0.05 
0.525 0 0.05 
0.55 0 0.05 
0.575 0 0.05 
0.6 0 0.05 
0.625 0 0.05 
0.65 0 0.05 
0.675 0 0.05 
0.7 0 0.05 
0.725 0 0.05 
0.75 0 0.05 
0.775 0 0.05 
0.8 0 0.05 
0.825 0 0.05 
0.85 0 0.05 
0.875 0 0.05 
0.9 0 0.05 
0.925 0 0.05 
0.95 0 0.05 
0.975 0 0.05 
1 0 0.05 
0 0.05 0.05 
0.025 0.05 0.05 
0.05 0.05 0.05 
0.075 0.05 0.05 
0.1 0.05 0.05 
0.125 0.05 0.05 
0.15 0.05 0.05 
0.175 0.05 0.05 
0.2 0.05 0.05 
0.225 0.05 0.05 
0.25 0.05 0.05 
0.275 0.05 0.05 
0.3 0.05 0.05 
0.325 0.05 0.05 
0.35 0.05 0.05 
0.375 0.05 0.05 
0.4 0.05 0.05 
0.425 0.05 0.05 
0.45 0.05 0.05 
0.475 0.05 0.05 
0.5 0.05 0.05 
0.525 0.05 0.05 
0.55 0.05 0.05 
0.575 0.05 0.05 
0.6 0.05 0.05 
0.625 0.05 0.05 
0.65 0.05 0.05 
0.675 0.05 0.05 
0.7 0.05 0.05 
0.725 0.05 0.05 
0.75 0.05 0.05 
0.775 0.05 0.05 
0.8 0.05 0.05 
0.825 0.05 0.05 
0.85 0.05 0.05 
0.875 0.05 0.05 
0.9 0.05 0.05 
0.925 0.05 0.05 
0.95 0.05 0.05 
0.975 0.05 0.05 
1 0.05 0.05 
0 0.1 0.05 
0.025 0.1 0.05 
0.05 0.1 0.05 
0.075 0.1 0.05 
0.1 0.1 0.05 
0.125 0.1 0.05 
0.15 0.1 0.05 
0.175 0.1 0.05 
0.2 0.1 0.05 
0.225 0.1 0.05 
0.25 0.1 0.05 
0.275 0.1 0.05 
0.3 0.1 0.05 
0.325 0.1 0.05 
0.35 0.1 0.05 
0.375 0.1 0.05 
0.4 0.1 0.05 
0.425 0.1 0.05 
0.45 0.1 0.05 
0.475 0.1 0.05 
0.5 0.1 0.05 
0.525 0.1 0.05 
0.55 0.1 0.05 
0.575 0.1 0.05 
0.6 0.1 0.05 
0.625 0.1 0.05 
0.65 0.1 0.05 
0.675 0.1 0.05 
0.7 0.1 0.05 
0.725 0.1 0.05 
0.75 0.1 0.05 
0.775 0.1 0.05 
0.8 0.1 0.05 
0.825 0.1 0.05 
0.85 0.1 0.05 
0.875 0.1 0.05 
0.9 0.1 0.05 
0.925 0.1 0.05 
0.95 0.1 0.05 
0.975 0.1 0.05 
1 0.1 0.05 
0 0 0.1 
0.025 0 0.1 
0.05 0 0.1 
0.075 0 0.1 
0.1 0 0.1 
0.125 0 0.1 
0.15 0 0.1 
0.175 0 0.1 
0.2 0 0.1 
0.225 0 0.1 
0.25 0 0.1 
0.275 0 0.1 
0.3 0 0.1 
0.325 0 0.1 
0.35 0 0.1 
0.375 0 0.1 
0.4 0 0.1 
0.425 0 0.1 
0.45 0 0.1 
0.475 0 0.1 
0.5 0 0.1 
0.525 0 0.1 
0.55 0 0.1 
0.575 0 0.1 
0.6 0 0.1 
0.625 0 0.1 
0.65 0 0.1 
0.675 0 0.1 
0.7 0 0.1 
0.725 0 0.1 
0.75 0 0.1 
0.775 0 0.1 
0.8 0 0.1 
0.825 0 0.1 
0.85 0 0.1 
0.875 0 0.1 
0.9 0 0.1 
0.925 0 0.1 
0.95 0 0.1 
0.975 0 0.1 
1 0 0.1 
0 0.05 0.1 
0.025 0.05 0.1 
0.05 0.05 0.1 
0.075 0.05 0.1 
0.1 0.05 0.1 
0.125 0.05 0.1 
0.15 0.05 0.1 
0.175 0.05 0.1 
0.2 0.05 0.1 
0.225 0.05 0.1 
0.25 0.05 0.1 
0.275 0.05 0.1 
0.3 0.05 0.1 
0.325 0.05 0.1 
0.35 0.05 0.1 
0.375 0.05 0.1 
0.4 0.05 0.1 
0.425 0.05 0.1 
0.45 0.05 0.1 
0.475 0.05 0.1 
0.5 0.05 0.1 
0.525 0.05 0.1 
0.55 0.05 0.1 
0.575 0.05 0.1 
0.6 0.05 0.1 
0.625 0.05 0.1 
0.65 0.05 0.1 
0.675 0.05 0.1 
0.7 0.05 0.1 
0.725 0.05 0.1 
0.75 0.05 0.1 
0.775 0.05 0.1 
0.8 0.05 0.1 
0.825 0.05 0.1 
0.85 0.05 0.1 
0.875 0.05 0.1 
0.9 0.05 0.1 
0.925 0.05 0.1 
0.95 0.05 0.1 
0.975 0.05 0.1 
1 0.05 0.1 
0 0.1 0.1 
0.025 0.1 0.1 
0.05 0.1 0.1 
0.075 0.1 0.1 
0.1 0.1 0.1 
0.125 0.1 0.1 
0.15 0.1 0.1 
0.175 0.1 0.1 
0.2 0.1 0.1 
0.225 0.1 0.1 
0.25 0.1 0.1 
0.275 0.1 0.1 
0.3 0.1 0.1 
0.325 0.1 0.1 
0.35 0.1 0.1 
0.375 0.1 0.1 
0.4 0.1 0.1 
0.425 0.1 0.1 
0.45 0.1 0.1 
0.475 0.1 0.1 
0.5 0.1 0.1 
0.525 0.1 0.1 
0.55 0.1 0.1 
0.575 0.1 0.1 
0.6 0.1 0.1 
0.625 0.1 0.1 
0.65 0.1 0.1 
0.675 0.1 0.1 
0.7 0.1 0.1 
0.725 0.1 0.1 
0.75 0.1 0.1 
0.775 0.1 0.1 
0.8 0.1 0.1 
0.825 0.1 0.1 
0.85 0.1 0.1 
0.875 0.1 0.1 
0.9 0.1 0.1 
0.925 0.1 0.1 
0.95 0.1 0.1 
0.975 0.1 0.1 
1 0.1 0.1 

CELLS 20 560
27 0 2 84 82 246 248 330 328 1 43 83 41 247 289 329 287 123 125 205 207 164 166 124 206 42 288 165 
27 2 4 86 84 248 250 332 330 3 45 85 43 249 291 331 289 125 127 207 209 166 168 126 208 44 290 167 
27 4 6 88 86 250 252 334 332 5 47 87 45 251 293 333 291 127 129 209 211 168 170 128 210 46 292 169 
27 6 8 90 88 252 254 336 334 7 49 89 47 253 295 335 293 129 131 211 213 170 172 130 212 48 294 171 
27 8 10 92 90 254 256 338 336 9 51 91 49 255 297 337 295 131 133 213 215 172 174 132 214 50 296 173 
27 10 12 94 92 256 258 340 338 11 53 93 51 257 299 339 297 133 135 215 217 174 176 134 216 52 298 175 
27 12 14 96 94 258 260 342 340 13 55 95 53 259 301 341 299 135 137 217 219 176 178 136 218 54 300 177 
27 14 16 98 96 260 262 344 342 15 57 97 55 261 303 343 301 137 139 219 221 178 180 138 220 56 302 179 
27 16 18 100 98 262 264 346 344 17 59 99 57 263 305 345 303 139 141 221 223 180 182 140 222 58 304 181 
27 18 20 102 100 264 266 348 346 19 61 101 59 265 307 347 305 141 143 223 225 182 184 142 224 60 306 183 
27 20 22 104 102 266 268 350 348 21 63 103 61 267 309 349 307 143 145 225 227 184 186 144 226 62 308 185 
27 22 24 106 104 268 270 352 350 23 65 105 63 269 311 351 309 145 147 227 229 186 188 146 228 64 310 187 
27 24 26 108 106 270 272 354 352 25 67 107 65 271 313 353 311 147 149 229 231 188 190 148 230 66 312 189 
27 26 28 110 108 272 274 356 354 27 69 109 67 273 315 355 313 149 151 231 233 190 192 150 232 68 314 191 
27 28 30 112 110 274 276 358 356 29 71 111 69 275 317 357 315 151 153 233 235 192 194 152 234 70 316 193 
27 30 32 114 112 276 278 360 358 31 73 113 71 277 319 359 317 153 155 235 237 194 196 154 236 72 318 195 
27 32 34 116 114 278 280 362 360 33 75 115 73 279 321 361 319 155 157 237 239 196 198 156 238 74 320 197 
27 34 36 118 116 280 282 364 362 35 77 117 75 281 323 363 321 157 159 239 241 198 200 158 240 76 322 199 
27 36 38 120 118 282 284 366 364 37 79 119 77 283 325 365 323 159 161 241 243 200 202 160 242 78 324 201 
27 38 40 122 120 284 286 368 366 39 81 121 79 285 327 367 325 161 163 243 245 202 204 162 244 80 326 203 

CELL_TYPES 20
72
72
72
72
72
72
72
72
72
72
72
72
72
72
72
72
72
72
72
72

POINT_DATA 369
SCALARS point_var float 1
LOOKUP_TABLE default
0
1
2
3
4
5
6
7
8
9
10
11
12
13
14
15
16
17
18
19
20
21
22
23
24
25
26
27
28
29
30
31
32
33
34
35
36
37
38
39
40
41
42
43
44
45
46
47
48
49
50
51
52
53
54
55
56
57
58
59
60
61
62
63
64
65
66
67
68
69
70
71
72
73
74
75
76
77
78
79
80
81
82
83
84
85
86
87
88
89
90
91
92
93
94
95
96
97
98
99
100
101
102
103
104
105
106
107
108
109
110
111
112
113
114
115
116
117
118
119
120
121
122
123
124
125
126
127
128
129
130
131
132
133
134
135
136
137
138
139
140
141
142
143
144
145
146
147
148
149
150
151
152
153
154
155
156
157
158
159
160
161
162
163
164
165
166
167
168
169
170
171
172
173
174
175
176
177
178
179
180
181
182
183
184
185
186
187
188
189
190
191
192
193
194
195
196
197
198
199
200
201
202
203
204
205
206
207
208
209
210
211
212
213
214
215
216
217
218
219
220
221
222
223
224
225
226
227
228
229
230
231
232
233
234
235
236
237
238
239
240
241
242
243
244
245
246
247
248
249
250
251
252
253
254
255
256
257
258
259
260
261
262
263
264
265
266
267
268
269
270
271
272
273
274
275
276
277
278
279
280
281
282
283
284
285
286
287
288
289
290
291
292
293
294
295
296
297
298
299
300
301
302
303
304
305
306
307
308
309
310
311
312
313
314
315
316
317
318
319
320
321
322
323
324
325
326
327
328
329
330
331
332
333
334
335
336
337
338
339
340
341
342
343
344
345
346
347
348
349
350
351
352
353
354
355
356
357
358
359
360
361
362
363
364
365
366
367
368

VECTORS point_vec float
0 1 2
0 1 2
0 1 2
0 1 2
0 1 2
0 1 2
0 1 2
0 1 2
0 1 2
0 1 2
0 1 2
0 1 2
0 1 2
0 1 2
0 1 2
0 1 2
0 1 2
0 1 2
0 1 2
0 1 2
0 1 2
0 1 2
0 1 2
0 1 2
0 1 2
0 1 2
0 1 2
0 1 2
0 1 2
0 1 2
0 1 2
0 1 2
0 1 2
0 1 2
0 1 2
0 1 2
0 1 2
0 1 2
0 1 2
0 1 2
0 1 2
0 1 2
0 1 2
0 1 2
0 1 2
0 1 2
0 1 2
0 1 2
0 1 2
0 1 2
0 1 2
0 1 2
0 1 2
0 1 2
0 1 2
0 1 2
0 1 2
0 1 2
0 1 2
0 1 2
0 1 2
0 1 2
0 1 2
0 1 2
0 1 2
0 1 2
0 1 2
0 1 2
0 1 2
0 1 2
0 1 2
0 1 2
0 1 2
0 1 2
0 1 2
0 1 2
0 1 2
0 1 2
0 1 2
0 1 2
0 1 2
0 1 2
0 1 2
0 1 2
0 1 2
0 1 2
0 1 2
0 1 2
0 1 2
0 1 2
0 1 2
0 1 2
0 1 2
0 1 2
0 1 2
0 1 2
0 1 2
0 1 2
0 1 2
0 1 2
0 1 2
0 1 2
0 1 2
0 1 2
0 1 2
0 1 2
0 1 2
0 1 2
0 1 2
0 1 2
0 1 2
0 1 2
0 1 2
0 1 2
0 1 2
0 1 2
0 1 2
0 1 2
0 1 2
0 1 2
0 1 2
0 1 2
0 1 2
0 1 2
0 1 2
0 1 2
0 1 2
0 1 2
0 1 2
0 1 2
0 1 2
0 1 2
0 1 2
0 1 2
0 1 2
0 1 2
0 1 2
0 1 2
0 1 2
0 1 2
0 1 2
0 1 2
0 1 2
0 1 2
0 1 2
0 1 2
0 1 2
0 1 2
0 1 2
0 1 2
0 1 2
0 1 2
0 1 2
0 1 2
0 1 2
0 1 2
0 1 2
0 1 2
0 1 2
0 1 2
0 1 2
0 1 2
0 1 2
0 1 2
0 1 2
0 1 2
0 1 2
0 1 2
0 1 2
0 1 2
0 1 2
0 1 2
0 1 2
0 1 2
0 1 2
0 1 2
0 1 2
0 1 2
0 1 2
0 1 2
0 1 2
0 1 2
0 1 2
0 1 2
0 1 2
0 1 2
0 1 2
0 1 2
0 1 2
0 1 2
0 1 2
0 1 2
0 1 2
0 1 2
0 1 2
0 1 2
0 1 2
0 1 2
0 1 2
0 1 2
0 1 2
0 1 2
0 1 2
0 1 2
0 1 2
0 1 2
0 1 2
0 1 2
0 1 2
0 1 2
0 1 2
0 1 2
0 1 2
0 1 2
0 1 2
0 1 2
0 1 2
0 1 2
0 1 2
0 1 2
0 1 2
0 1 2
0 1 2
0 1 2
0 1 2
0 1 2
0 1 2
0 1 2
0 1 2
0 1 2
0 1 2
0 1 2
0 1 2
0 1 2
0 1 2
0 1 2
0 1 2
0 1 2
0 1 2
0 1 2
0 1 2
0 1 2
0 1 2
0 1 2
0 1 2
0 1 2
0 1 2
0 1 2
0 1 2
0 1 2
0 1 2
0 1 2
0 1 2
0 1 2
0 1 2
0 1 2
0 1 2
0 1 2
0 1 2
0 1 2
0 1 2
0 1 2
0 1 2
0 1 2
0 1 2
0 1 2
0 1 2
0 1 2
0 1 2
0 1 2
0 1 2
0 1 2
0 1 2
0 1 2
0 1 2
0 1 2
0 1 2
0 1 2
0 1 2
0 1 2
0 1 2
0 1 2
0 1 2
0 1 2
0 1 2
0 1 2
0 1 2
0 1 2
0 1 2
0 1 2
0 1 2
0 1 2
0 1 2
0 1 2
0 1 2
0 1 2
0 1 2
0 1 2
0 1 2
0 1 2
0 1 2
0 1 2
0 1 2
0 1 2
0 1 2
0 1 2
0 1 2
0 1 2
0 1 2
0 1 2
0 1 2
0 1 2
0 1 2
0 1 2
0 1 2
0 1 2
0 1 2
0 1 2
0 1 2
0 1 2
0 1 2
0 1 2
0 1 2
0 1 2
0 1 2
0 1 2
0 1 2
0 1 2
0 1 2
0 1 2
0 1 2
0 1 2
0 1 2
0 1 2
0 1 2
0 1 2
0 1 2
0 1 2
0 1 2
0 1 2
0 1 2
0 1 2
0 1 2
0 1 2
0 1 2
0 1 2
0 1 2
0 1 2
0 1 2
0 1 2
0 1 2
0 1 2
0 1 2
0 1 2
0 1 2
0 1 2
0 1 2
0 1 2
0 1 2
0 1 2
0 1 2
0 1 2
0 1 2
0 1 2
0 1 2
0 1 2
0 1 2
0 1 2
0 1 2

CELL_DATA 20
SCALARS elem_var float 1
LOOKUP_TABLE default 
0
1
2
3
4
5
6
7
8
9
10
11
12
13
14
15
16
17
18
19

SCALARS elem_var2 float 1
LOOKUP_TABLE default 
0
18446744073709551615
18446744073709551614
18446744073709551613
18446744073709551612
18446744073709551611
18446744073709551610
18446744073709551609
18446744073709551608
18446744073709551607
18446744073709551606
18446744073709551605
18446744073709551604
18446744073709551603
18446744073709551602
18446744073709551601
18446744073709551600
18446744073709551599
18446744073709551598
18446744073709551597
