# vtk DataFile Version 2.0
Mesh for Fierro
ASCII
DATASET UNSTRUCTURED_GRID

POINTS 8 float
0 0 0 
1 0 0 
0 1 0 
1 1 0 
0 0 0.33 
1 0 0.33 
0 1 0.33 
1 1 0.33 

CELLS 1 9
8 0 1 3 2 4 5 7 6 

CELL_TYPES 1
72

POINT_DATA 8
SCALARS point_var float 1
LOOKUP_TABLE default
0
1
2
3
4
5
6
7

VECTORS point_vec float
0 1 2
0 1 2
0 1 2
0 1 2
0 1 2
0 1 2
0 1 2
0 1 2

CELL_DATA 1
SCALARS elem_var float 1
LOOKUP_TABLE default 
0

SCALARS elem_var2 float 1
LOOKUP_TABLE default 
0
