# vtk DataFile Version 2.0
Mesh for Fierro
ASCII
DATASET UNSTRUCTURED_GRID

POINTS 162 float
0 0 0 
0.125 0 0 
0.25 0 0 
0.375 0 0 
0.5 0 0 
0.625 0 0 
0.75 0 0 
0.875 0 0 
1 0 0 
0 0.125 0 
0.125 0.125 0 
0.25 0.125 0 
0.375 0.125 0 
0.5 0.125 0 
0.625 0.125 0 
0.75 0.125 0 
0.875 0.125 0 
1 0.125 0 
0 0.25 0 
0.125 0.25 0 
0.25 0.25 0 
0.375 0.25 0 
0.5 0.25 0 
0.625 0.25 0 
0.75 0.25 0 
0.875 0.25 0 
1 0.25 0 
0 0.375 0 
0.125 0.375 0 
0.25 0.375 0 
0.375 0.375 0 
0.5 0.375 0 
0.625 0.375 0 
0.75 0.375 0 
0.875 0.375 0 
1 0.375 0 
0 0.5 0 
0.125 0.5 0 
0.25 0.5 0 
0.375 0.5 0 
0.5 0.5 0 
0.625 0.5 0 
0.75 0.5 0 
0.875 0.5 0 
1 0.5 0 
0 0.625 0 
0.125 0.625 0 
0.25 0.625 0 
0.375 0.625 0 
0.5 0.625 0 
0.625 0.625 0 
0.75 0.625 0 
0.875 0.625 0 
1 0.625 0 
0 0.75 0 
0.125 0.75 0 
0.25 0.75 0 
0.375 0.75 0 
0.5 0.75 0 
0.625 0.75 0 
0.75 0.75 0 
0.875 0.75 0 
1 0.75 0 
0 0.875 0 
0.125 0.875 0 
0.25 0.875 0 
0.375 0.875 0 
0.5 0.875 0 
0.625 0.875 0 
0.75 0.875 0 
0.875 0.875 0 
1 0.875 0 
0 1 0 
0.125 1 0 
0.25 1 0 
0.375 1 0 
0.5 1 0 
0.625 1 0 
0.75 1 0 
0.875 1 0 
1 1 0 
0 0 0.33 
0.125 0 0.33 
0.25 0 0.33 
0.375 0 0.33 
0.5 0 0.33 
0.625 0 0.33 
0.75 0 0.33 
0.875 0 0.33 
1 0 0.33 
0 0.125 0.33 
0.125 0.125 0.33 
0.25 0.125 0.33 
0.375 0.125 0.33 
0.5 0.125 0.33 
0.625 0.125 0.33 
0.75 0.125 0.33 
0.875 0.125 0.33 
1 0.125 0.33 
0 0.25 0.33 
0.125 0.25 0.33 
0.25 0.25 0.33 
0.375 0.25 0.33 
0.5 0.25 0.33 
0.625 0.25 0.33 
0.75 0.25 0.33 
0.875 0.25 0.33 
1 0.25 0.33 
0 0.375 0.33 
0.125 0.375 0.33 
0.25 0.375 0.33 
0.375 0.375 0.33 
0.5 0.375 0.33 
0.625 0.375 0.33 
0.75 0.375 0.33 
0.875 0.375 0.33 
1 0.375 0.33 
0 0.5 0.33 
0.125 0.5 0.33 
0.25 0.5 0.33 
0.375 0.5 0.33 
0.5 0.5 0.33 
0.625 0.5 0.33 
0.75 0.5 0.33 
0.875 0.5 0.33 
1 0.5 0.33 
0 0.625 0.33 
0.125 0.625 0.33 
0.25 0.625 0.33 
0.375 0.625 0.33 
0.5 0.625 0.33 
0.625 0.625 0.33 
0.75 0.625 0.33 
0.875 0.625 0.33 
1 0.625 0.33 
0 0.75 0.33 
0.125 0.75 0.33 
0.25 0.75 0.33 
0.375 0.75 0.33 
0.5 0.75 0.33 
0.625 0.75 0.33 
0.75 0.75 0.33 
0.875 0.75 0.33 
1 0.75 0.33 
0 0.875 0.33 
0.125 0.875 0.33 
0.25 0.875 0.33 
0.375 0.875 0.33 
0.5 0.875 0.33 
0.625 0.875 0.33 
0.75 0.875 0.33 
0.875 0.875 0.33 
1 0.875 0.33 
0 1 0.33 
0.125 1 0.33 
0.25 1 0.33 
0.375 1 0.33 
0.5 1 0.33 
0.625 1 0.33 
0.75 1 0.33 
0.875 1 0.33 
1 1 0.33 

CELLS 64 576
8 0 1 10 9 81 82 91 90 
8 1 2 11 10 82 83 92 91 
8 2 3 12 11 83 84 93 92 
8 3 4 13 12 84 85 94 93 
8 4 5 14 13 85 86 95 94 
8 5 6 15 14 86 87 96 95 
8 6 7 16 15 87 88 97 96 
8 7 8 17 16 88 89 98 97 
8 9 10 19 18 90 91 100 99 
8 10 11 20 19 91 92 101 100 
8 11 12 21 20 92 93 102 101 
8 12 13 22 21 93 94 103 102 
8 13 14 23 22 94 95 104 103 
8 14 15 24 23 95 96 105 104 
8 15 16 25 24 96 97 106 105 
8 16 17 26 25 97 98 107 106 
8 18 19 28 27 99 100 109 108 
8 19 20 29 28 100 101 110 109 
8 20 21 30 29 101 102 111 110 
8 21 22 31 30 102 103 112 111 
8 22 23 32 31 103 104 113 112 
8 23 24 33 32 104 105 114 113 
8 24 25 34 33 105 106 115 114 
8 25 26 35 34 106 107 116 115 
8 27 28 37 36 108 109 118 117 
8 28 29 38 37 109 110 119 118 
8 29 30 39 38 110 111 120 119 
8 30 31 40 39 111 112 121 120 
8 31 32 41 40 112 113 122 121 
8 32 33 42 41 113 114 123 122 
8 33 34 43 42 114 115 124 123 
8 34 35 44 43 115 116 125 124 
8 36 37 46 45 117 118 127 126 
8 37 38 47 46 118 119 128 127 
8 38 39 48 47 119 120 129 128 
8 39 40 49 48 120 121 130 129 
8 40 41 50 49 121 122 131 130 
8 41 42 51 50 122 123 132 131 
8 42 43 52 51 123 124 133 132 
8 43 44 53 52 124 125 134 133 
8 45 46 55 54 126 127 136 135 
8 46 47 56 55 127 128 137 136 
8 47 48 57 56 128 129 138 137 
8 48 49 58 57 129 130 139 138 
8 49 50 59 58 130 131 140 139 
8 50 51 60 59 131 132 141 140 
8 51 52 61 60 132 133 142 141 
8 52 53 62 61 133 134 143 142 
8 54 55 64 63 135 136 145 144 
8 55 56 65 64 136 137 146 145 
8 56 57 66 65 137 138 147 146 
8 57 58 67 66 138 139 148 147 
8 58 59 68 67 139 140 149 148 
8 59 60 69 68 140 141 150 149 
8 60 61 70 69 141 142 151 150 
8 61 62 71 70 142 143 152 151 
8 63 64 73 72 144 145 154 153 
8 64 65 74 73 145 146 155 154 
8 65 66 75 74 146 147 156 155 
8 66 67 76 75 147 148 157 156 
8 67 68 77 76 148 149 158 157 
8 68 69 78 77 149 150 159 158 
8 69 70 79 78 150 151 160 159 
8 70 71 80 79 151 152 161 160 

CELL_TYPES 64
72
72
72
72
72
72
72
72
72
72
72
72
72
72
72
72
72
72
72
72
72
72
72
72
72
72
72
72
72
72
72
72
72
72
72
72
72
72
72
72
72
72
72
72
72
72
72
72
72
72
72
72
72
72
72
72
72
72
72
72
72
72
72
72

POINT_DATA 162
SCALARS point_var float 1
LOOKUP_TABLE default
0
1
2
3
4
5
6
7
8
9
10
11
12
13
14
15
16
17
18
19
20
21
22
23
24
25
26
27
28
29
30
31
32
33
34
35
36
37
38
39
40
41
42
43
44
45
46
47
48
49
50
51
52
53
54
55
56
57
58
59
60
61
62
63
64
65
66
67
68
69
70
71
72
73
74
75
76
77
78
79
80
81
82
83
84
85
86
87
88
89
90
91
92
93
94
95
96
97
98
99
100
101
102
103
104
105
106
107
108
109
110
111
112
113
114
115
116
117
118
119
120
121
122
123
124
125
126
127
128
129
130
131
132
133
134
135
136
137
138
139
140
141
142
143
144
145
146
147
148
149
150
151
152
153
154
155
156
157
158
159
160
161

VECTORS point_vec float
0 1 2
0 1 2
0 1 2
0 1 2
0 1 2
0 1 2
0 1 2
0 1 2
0 1 2
0 1 2
0 1 2
0 1 2
0 1 2
0 1 2
0 1 2
0 1 2
0 1 2
0 1 2
0 1 2
0 1 2
0 1 2
0 1 2
0 1 2
0 1 2
0 1 2
0 1 2
0 1 2
0 1 2
0 1 2
0 1 2
0 1 2
0 1 2
0 1 2
0 1 2
0 1 2
0 1 2
0 1 2
0 1 2
0 1 2
0 1 2
0 1 2
0 1 2
0 1 2
0 1 2
0 1 2
0 1 2
0 1 2
0 1 2
0 1 2
0 1 2
0 1 2
0 1 2
0 1 2
0 1 2
0 1 2
0 1 2
0 1 2
0 1 2
0 1 2
0 1 2
0 1 2
0 1 2
0 1 2
0 1 2
0 1 2
0 1 2
0 1 2
0 1 2
0 1 2
0 1 2
0 1 2
0 1 2
0 1 2
0 1 2
0 1 2
0 1 2
0 1 2
0 1 2
0 1 2
0 1 2
0 1 2
0 1 2
0 1 2
0 1 2
0 1 2
0 1 2
0 1 2
0 1 2
0 1 2
0 1 2
0 1 2
0 1 2
0 1 2
0 1 2
0 1 2
0 1 2
0 1 2
0 1 2
0 1 2
0 1 2
0 1 2
0 1 2
0 1 2
0 1 2
0 1 2
0 1 2
0 1 2
0 1 2
0 1 2
0 1 2
0 1 2
0 1 2
0 1 2
0 1 2
0 1 2
0 1 2
0 1 2
0 1 2
0 1 2
0 1 2
0 1 2
0 1 2
0 1 2
0 1 2
0 1 2
0 1 2
0 1 2
0 1 2
0 1 2
0 1 2
0 1 2
0 1 2
0 1 2
0 1 2
0 1 2
0 1 2
0 1 2
0 1 2
0 1 2
0 1 2
0 1 2
0 1 2
0 1 2
0 1 2
0 1 2
0 1 2
0 1 2
0 1 2
0 1 2
0 1 2
0 1 2
0 1 2
0 1 2
0 1 2
0 1 2
0 1 2
0 1 2
0 1 2
0 1 2
0 1 2
0 1 2
0 1 2

CELL_DATA 64
SCALARS elem_var float 1
LOOKUP_TABLE default 
0
1
2
3
4
5
6
7
8
9
10
11
12
13
14
15
16
17
18
19
20
21
22
23
24
25
26
27
28
29
30
31
32
33
34
35
36
37
38
39
40
41
42
43
44
45
46
47
48
49
50
51
52
53
54
55
56
57
58
59
60
61
62
63

SCALARS elem_var2 float 1
LOOKUP_TABLE default 
0
18446744073709551615
18446744073709551614
18446744073709551613
18446744073709551612
18446744073709551611
18446744073709551610
18446744073709551609
18446744073709551608
18446744073709551607
18446744073709551606
18446744073709551605
18446744073709551604
18446744073709551603
18446744073709551602
18446744073709551601
18446744073709551600
18446744073709551599
18446744073709551598
18446744073709551597
18446744073709551596
18446744073709551595
18446744073709551594
18446744073709551593
18446744073709551592
18446744073709551591
18446744073709551590
18446744073709551589
18446744073709551588
18446744073709551587
18446744073709551586
18446744073709551585
18446744073709551584
18446744073709551583
18446744073709551582
18446744073709551581
18446744073709551580
18446744073709551579
18446744073709551578
18446744073709551577
18446744073709551576
18446744073709551575
18446744073709551574
18446744073709551573
18446744073709551572
18446744073709551571
18446744073709551570
18446744073709551569
18446744073709551568
18446744073709551567
18446744073709551566
18446744073709551565
18446744073709551564
18446744073709551563
18446744073709551562
18446744073709551561
18446744073709551560
18446744073709551559
18446744073709551558
18446744073709551557
18446744073709551556
18446744073709551555
18446744073709551554
18446744073709551553
