# vtk DataFile Version 2.0
Mesh for Fierro
ASCII
DATASET UNSTRUCTURED_GRID

POINTS 50 float
0 0 0 
0.25 0 0 
0.5 0 0 
0.75 0 0 
1 0 0 
0 0.25 0 
0.25 0.25 0 
0.5 0.25 0 
0.75 0.25 0 
1 0.25 0 
0 0.5 0 
0.25 0.5 0 
0.5 0.5 0 
0.75 0.5 0 
1 0.5 0 
0 0.75 0 
0.25 0.75 0 
0.5 0.75 0 
0.75 0.75 0 
1 0.75 0 
0 1 0 
0.25 1 0 
0.5 1 0 
0.75 1 0 
1 1 0 
0 0 0.33 
0.25 0 0.33 
0.5 0 0.33 
0.75 0 0.33 
1 0 0.33 
0 0.25 0.33 
0.25 0.25 0.33 
0.5 0.25 0.33 
0.75 0.25 0.33 
1 0.25 0.33 
0 0.5 0.33 
0.25 0.5 0.33 
0.5 0.5 0.33 
0.75 0.5 0.33 
1 0.5 0.33 
0 0.75 0.33 
0.25 0.75 0.33 
0.5 0.75 0.33 
0.75 0.75 0.33 
1 0.75 0.33 
0 1 0.33 
0.25 1 0.33 
0.5 1 0.33 
0.75 1 0.33 
1 1 0.33 

CELLS 16 144
8 0 1 6 5 25 26 31 30 
8 1 2 7 6 26 27 32 31 
8 2 3 8 7 27 28 33 32 
8 3 4 9 8 28 29 34 33 
8 5 6 11 10 30 31 36 35 
8 6 7 12 11 31 32 37 36 
8 7 8 13 12 32 33 38 37 
8 8 9 14 13 33 34 39 38 
8 10 11 16 15 35 36 41 40 
8 11 12 17 16 36 37 42 41 
8 12 13 18 17 37 38 43 42 
8 13 14 19 18 38 39 44 43 
8 15 16 21 20 40 41 46 45 
8 16 17 22 21 41 42 47 46 
8 17 18 23 22 42 43 48 47 
8 18 19 24 23 43 44 49 48 

CELL_TYPES 16
12
12
12
12
12
12
12
12
12
12
12
12
12
12
12
12

POINT_DATA 50
SCALARS point_var float 1
LOOKUP_TABLE default
0
1
2
3
4
5
6
7
8
9
10
11
12
13
14
15
16
17
18
19
20
21
22
23
24
25
26
27
28
29
30
31
32
33
34
35
36
37
38
39
40
41
42
43
44
45
46
47
48
49

VECTORS point_vec float
0 1 2
0 1 2
0 1 2
0 1 2
0 1 2
0 1 2
0 1 2
0 1 2
0 1 2
0 1 2
0 1 2
0 1 2
0 1 2
0 1 2
0 1 2
0 1 2
0 1 2
0 1 2
0 1 2
0 1 2
0 1 2
0 1 2
0 1 2
0 1 2
0 1 2
0 1 2
0 1 2
0 1 2
0 1 2
0 1 2
0 1 2
0 1 2
0 1 2
0 1 2
0 1 2
0 1 2
0 1 2
0 1 2
0 1 2
0 1 2
0 1 2
0 1 2
0 1 2
0 1 2
0 1 2
0 1 2
0 1 2
0 1 2
0 1 2
0 1 2

CELL_DATA 16
SCALARS elem_var float 1
LOOKUP_TABLE default 
0
1
2
3
4
5
6
7
8
9
10
11
12
13
14
15

SCALARS elem_var2 float 1
LOOKUP_TABLE default 
0
18446744073709551615
18446744073709551614
18446744073709551613
18446744073709551612
18446744073709551611
18446744073709551610
18446744073709551609
18446744073709551608
18446744073709551607
18446744073709551606
18446744073709551605
18446744073709551604
18446744073709551603
18446744073709551602
18446744073709551601
