# vtk DataFile Version 2.0
Mesh for Fierro
ASCII
DATASET UNSTRUCTURED_GRID

POINTS 578 float
0 0 0 
0.33 0 0 
0 0.0625 0 
0.33 0.0625 0 
0 0.125 0 
0.33 0.125 0 
0 0.1875 0 
0.33 0.1875 0 
0 0.25 0 
0.33 0.25 0 
0 0.3125 0 
0.33 0.3125 0 
0 0.375 0 
0.33 0.375 0 
0 0.4375 0 
0.33 0.4375 0 
0 0.5 0 
0.33 0.5 0 
0 0.5625 0 
0.33 0.5625 0 
0 0.625 0 
0.33 0.625 0 
0 0.6875 0 
0.33 0.6875 0 
0 0.75 0 
0.33 0.75 0 
0 0.8125 0 
0.33 0.8125 0 
0 0.875 0 
0.33 0.875 0 
0 0.9375 0 
0.33 0.9375 0 
0 1 0 
0.33 1 0 
0 0 0.0625 
0.33 0 0.0625 
0 0.0625 0.0625 
0.33 0.0625 0.0625 
0 0.125 0.0625 
0.33 0.125 0.0625 
0 0.1875 0.0625 
0.33 0.1875 0.0625 
0 0.25 0.0625 
0.33 0.25 0.0625 
0 0.3125 0.0625 
0.33 0.3125 0.0625 
0 0.375 0.0625 
0.33 0.375 0.0625 
0 0.4375 0.0625 
0.33 0.4375 0.0625 
0 0.5 0.0625 
0.33 0.5 0.0625 
0 0.5625 0.0625 
0.33 0.5625 0.0625 
0 0.625 0.0625 
0.33 0.625 0.0625 
0 0.6875 0.0625 
0.33 0.6875 0.0625 
0 0.75 0.0625 
0.33 0.75 0.0625 
0 0.8125 0.0625 
0.33 0.8125 0.0625 
0 0.875 0.0625 
0.33 0.875 0.0625 
0 0.9375 0.0625 
0.33 0.9375 0.0625 
0 1 0.0625 
0.33 1 0.0625 
0 0 0.125 
0.33 0 0.125 
0 0.0625 0.125 
0.33 0.0625 0.125 
0 0.125 0.125 
0.33 0.125 0.125 
0 0.1875 0.125 
0.33 0.1875 0.125 
0 0.25 0.125 
0.33 0.25 0.125 
0 0.3125 0.125 
0.33 0.3125 0.125 
0 0.375 0.125 
0.33 0.375 0.125 
0 0.4375 0.125 
0.33 0.4375 0.125 
0 0.5 0.125 
0.33 0.5 0.125 
0 0.5625 0.125 
0.33 0.5625 0.125 
0 0.625 0.125 
0.33 0.625 0.125 
0 0.6875 0.125 
0.33 0.6875 0.125 
0 0.75 0.125 
0.33 0.75 0.125 
0 0.8125 0.125 
0.33 0.8125 0.125 
0 0.875 0.125 
0.33 0.875 0.125 
0 0.9375 0.125 
0.33 0.9375 0.125 
0 1 0.125 
0.33 1 0.125 
0 0 0.1875 
0.33 0 0.1875 
0 0.0625 0.1875 
0.33 0.0625 0.1875 
0 0.125 0.1875 
0.33 0.125 0.1875 
0 0.1875 0.1875 
0.33 0.1875 0.1875 
0 0.25 0.1875 
0.33 0.25 0.1875 
0 0.3125 0.1875 
0.33 0.3125 0.1875 
0 0.375 0.1875 
0.33 0.375 0.1875 
0 0.4375 0.1875 
0.33 0.4375 0.1875 
0 0.5 0.1875 
0.33 0.5 0.1875 
0 0.5625 0.1875 
0.33 0.5625 0.1875 
0 0.625 0.1875 
0.33 0.625 0.1875 
0 0.6875 0.1875 
0.33 0.6875 0.1875 
0 0.75 0.1875 
0.33 0.75 0.1875 
0 0.8125 0.1875 
0.33 0.8125 0.1875 
0 0.875 0.1875 
0.33 0.875 0.1875 
0 0.9375 0.1875 
0.33 0.9375 0.1875 
0 1 0.1875 
0.33 1 0.1875 
0 0 0.25 
0.33 0 0.25 
0 0.0625 0.25 
0.33 0.0625 0.25 
0 0.125 0.25 
0.33 0.125 0.25 
0 0.1875 0.25 
0.33 0.1875 0.25 
0 0.25 0.25 
0.33 0.25 0.25 
0 0.3125 0.25 
0.33 0.3125 0.25 
0 0.375 0.25 
0.33 0.375 0.25 
0 0.4375 0.25 
0.33 0.4375 0.25 
0 0.5 0.25 
0.33 0.5 0.25 
0 0.5625 0.25 
0.33 0.5625 0.25 
0 0.625 0.25 
0.33 0.625 0.25 
0 0.6875 0.25 
0.33 0.6875 0.25 
0 0.75 0.25 
0.33 0.75 0.25 
0 0.8125 0.25 
0.33 0.8125 0.25 
0 0.875 0.25 
0.33 0.875 0.25 
0 0.9375 0.25 
0.33 0.9375 0.25 
0 1 0.25 
0.33 1 0.25 
0 0 0.3125 
0.33 0 0.3125 
0 0.0625 0.3125 
0.33 0.0625 0.3125 
0 0.125 0.3125 
0.33 0.125 0.3125 
0 0.1875 0.3125 
0.33 0.1875 0.3125 
0 0.25 0.3125 
0.33 0.25 0.3125 
0 0.3125 0.3125 
0.33 0.3125 0.3125 
0 0.375 0.3125 
0.33 0.375 0.3125 
0 0.4375 0.3125 
0.33 0.4375 0.3125 
0 0.5 0.3125 
0.33 0.5 0.3125 
0 0.5625 0.3125 
0.33 0.5625 0.3125 
0 0.625 0.3125 
0.33 0.625 0.3125 
0 0.6875 0.3125 
0.33 0.6875 0.3125 
0 0.75 0.3125 
0.33 0.75 0.3125 
0 0.8125 0.3125 
0.33 0.8125 0.3125 
0 0.875 0.3125 
0.33 0.875 0.3125 
0 0.9375 0.3125 
0.33 0.9375 0.3125 
0 1 0.3125 
0.33 1 0.3125 
0 0 0.375 
0.33 0 0.375 
0 0.0625 0.375 
0.33 0.0625 0.375 
0 0.125 0.375 
0.33 0.125 0.375 
0 0.1875 0.375 
0.33 0.1875 0.375 
0 0.25 0.375 
0.33 0.25 0.375 
0 0.3125 0.375 
0.33 0.3125 0.375 
0 0.375 0.375 
0.33 0.375 0.375 
0 0.4375 0.375 
0.33 0.4375 0.375 
0 0.5 0.375 
0.33 0.5 0.375 
0 0.5625 0.375 
0.33 0.5625 0.375 
0 0.625 0.375 
0.33 0.625 0.375 
0 0.6875 0.375 
0.33 0.6875 0.375 
0 0.75 0.375 
0.33 0.75 0.375 
0 0.8125 0.375 
0.33 0.8125 0.375 
0 0.875 0.375 
0.33 0.875 0.375 
0 0.9375 0.375 
0.33 0.9375 0.375 
0 1 0.375 
0.33 1 0.375 
0 0 0.4375 
0.33 0 0.4375 
0 0.0625 0.4375 
0.33 0.0625 0.4375 
0 0.125 0.4375 
0.33 0.125 0.4375 
0 0.1875 0.4375 
0.33 0.1875 0.4375 
0 0.25 0.4375 
0.33 0.25 0.4375 
0 0.3125 0.4375 
0.33 0.3125 0.4375 
0 0.375 0.4375 
0.33 0.375 0.4375 
0 0.4375 0.4375 
0.33 0.4375 0.4375 
0 0.5 0.4375 
0.33 0.5 0.4375 
0 0.5625 0.4375 
0.33 0.5625 0.4375 
0 0.625 0.4375 
0.33 0.625 0.4375 
0 0.6875 0.4375 
0.33 0.6875 0.4375 
0 0.75 0.4375 
0.33 0.75 0.4375 
0 0.8125 0.4375 
0.33 0.8125 0.4375 
0 0.875 0.4375 
0.33 0.875 0.4375 
0 0.9375 0.4375 
0.33 0.9375 0.4375 
0 1 0.4375 
0.33 1 0.4375 
0 0 0.5 
0.33 0 0.5 
0 0.0625 0.5 
0.33 0.0625 0.5 
0 0.125 0.5 
0.33 0.125 0.5 
0 0.1875 0.5 
0.33 0.1875 0.5 
0 0.25 0.5 
0.33 0.25 0.5 
0 0.3125 0.5 
0.33 0.3125 0.5 
0 0.375 0.5 
0.33 0.375 0.5 
0 0.4375 0.5 
0.33 0.4375 0.5 
0 0.5 0.5 
0.33 0.5 0.5 
0 0.5625 0.5 
0.33 0.5625 0.5 
0 0.625 0.5 
0.33 0.625 0.5 
0 0.6875 0.5 
0.33 0.6875 0.5 
0 0.75 0.5 
0.33 0.75 0.5 
0 0.8125 0.5 
0.33 0.8125 0.5 
0 0.875 0.5 
0.33 0.875 0.5 
0 0.9375 0.5 
0.33 0.9375 0.5 
0 1 0.5 
0.33 1 0.5 
0 0 0.5625 
0.33 0 0.5625 
0 0.0625 0.5625 
0.33 0.0625 0.5625 
0 0.125 0.5625 
0.33 0.125 0.5625 
0 0.1875 0.5625 
0.33 0.1875 0.5625 
0 0.25 0.5625 
0.33 0.25 0.5625 
0 0.3125 0.5625 
0.33 0.3125 0.5625 
0 0.375 0.5625 
0.33 0.375 0.5625 
0 0.4375 0.5625 
0.33 0.4375 0.5625 
0 0.5 0.5625 
0.33 0.5 0.5625 
0 0.5625 0.5625 
0.33 0.5625 0.5625 
0 0.625 0.5625 
0.33 0.625 0.5625 
0 0.6875 0.5625 
0.33 0.6875 0.5625 
0 0.75 0.5625 
0.33 0.75 0.5625 
0 0.8125 0.5625 
0.33 0.8125 0.5625 
0 0.875 0.5625 
0.33 0.875 0.5625 
0 0.9375 0.5625 
0.33 0.9375 0.5625 
0 1 0.5625 
0.33 1 0.5625 
0 0 0.625 
0.33 0 0.625 
0 0.0625 0.625 
0.33 0.0625 0.625 
0 0.125 0.625 
0.33 0.125 0.625 
0 0.1875 0.625 
0.33 0.1875 0.625 
0 0.25 0.625 
0.33 0.25 0.625 
0 0.3125 0.625 
0.33 0.3125 0.625 
0 0.375 0.625 
0.33 0.375 0.625 
0 0.4375 0.625 
0.33 0.4375 0.625 
0 0.5 0.625 
0.33 0.5 0.625 
0 0.5625 0.625 
0.33 0.5625 0.625 
0 0.625 0.625 
0.33 0.625 0.625 
0 0.6875 0.625 
0.33 0.6875 0.625 
0 0.75 0.625 
0.33 0.75 0.625 
0 0.8125 0.625 
0.33 0.8125 0.625 
0 0.875 0.625 
0.33 0.875 0.625 
0 0.9375 0.625 
0.33 0.9375 0.625 
0 1 0.625 
0.33 1 0.625 
0 0 0.6875 
0.33 0 0.6875 
0 0.0625 0.6875 
0.33 0.0625 0.6875 
0 0.125 0.6875 
0.33 0.125 0.6875 
0 0.1875 0.6875 
0.33 0.1875 0.6875 
0 0.25 0.6875 
0.33 0.25 0.6875 
0 0.3125 0.6875 
0.33 0.3125 0.6875 
0 0.375 0.6875 
0.33 0.375 0.6875 
0 0.4375 0.6875 
0.33 0.4375 0.6875 
0 0.5 0.6875 
0.33 0.5 0.6875 
0 0.5625 0.6875 
0.33 0.5625 0.6875 
0 0.625 0.6875 
0.33 0.625 0.6875 
0 0.6875 0.6875 
0.33 0.6875 0.6875 
0 0.75 0.6875 
0.33 0.75 0.6875 
0 0.8125 0.6875 
0.33 0.8125 0.6875 
0 0.875 0.6875 
0.33 0.875 0.6875 
0 0.9375 0.6875 
0.33 0.9375 0.6875 
0 1 0.6875 
0.33 1 0.6875 
0 0 0.75 
0.33 0 0.75 
0 0.0625 0.75 
0.33 0.0625 0.75 
0 0.125 0.75 
0.33 0.125 0.75 
0 0.1875 0.75 
0.33 0.1875 0.75 
0 0.25 0.75 
0.33 0.25 0.75 
0 0.3125 0.75 
0.33 0.3125 0.75 
0 0.375 0.75 
0.33 0.375 0.75 
0 0.4375 0.75 
0.33 0.4375 0.75 
0 0.5 0.75 
0.33 0.5 0.75 
0 0.5625 0.75 
0.33 0.5625 0.75 
0 0.625 0.75 
0.33 0.625 0.75 
0 0.6875 0.75 
0.33 0.6875 0.75 
0 0.75 0.75 
0.33 0.75 0.75 
0 0.8125 0.75 
0.33 0.8125 0.75 
0 0.875 0.75 
0.33 0.875 0.75 
0 0.9375 0.75 
0.33 0.9375 0.75 
0 1 0.75 
0.33 1 0.75 
0 0 0.8125 
0.33 0 0.8125 
0 0.0625 0.8125 
0.33 0.0625 0.8125 
0 0.125 0.8125 
0.33 0.125 0.8125 
0 0.1875 0.8125 
0.33 0.1875 0.8125 
0 0.25 0.8125 
0.33 0.25 0.8125 
0 0.3125 0.8125 
0.33 0.3125 0.8125 
0 0.375 0.8125 
0.33 0.375 0.8125 
0 0.4375 0.8125 
0.33 0.4375 0.8125 
0 0.5 0.8125 
0.33 0.5 0.8125 
0 0.5625 0.8125 
0.33 0.5625 0.8125 
0 0.625 0.8125 
0.33 0.625 0.8125 
0 0.6875 0.8125 
0.33 0.6875 0.8125 
0 0.75 0.8125 
0.33 0.75 0.8125 
0 0.8125 0.8125 
0.33 0.8125 0.8125 
0 0.875 0.8125 
0.33 0.875 0.8125 
0 0.9375 0.8125 
0.33 0.9375 0.8125 
0 1 0.8125 
0.33 1 0.8125 
0 0 0.875 
0.33 0 0.875 
0 0.0625 0.875 
0.33 0.0625 0.875 
0 0.125 0.875 
0.33 0.125 0.875 
0 0.1875 0.875 
0.33 0.1875 0.875 
0 0.25 0.875 
0.33 0.25 0.875 
0 0.3125 0.875 
0.33 0.3125 0.875 
0 0.375 0.875 
0.33 0.375 0.875 
0 0.4375 0.875 
0.33 0.4375 0.875 
0 0.5 0.875 
0.33 0.5 0.875 
0 0.5625 0.875 
0.33 0.5625 0.875 
0 0.625 0.875 
0.33 0.625 0.875 
0 0.6875 0.875 
0.33 0.6875 0.875 
0 0.75 0.875 
0.33 0.75 0.875 
0 0.8125 0.875 
0.33 0.8125 0.875 
0 0.875 0.875 
0.33 0.875 0.875 
0 0.9375 0.875 
0.33 0.9375 0.875 
0 1 0.875 
0.33 1 0.875 
0 0 0.9375 
0.33 0 0.9375 
0 0.0625 0.9375 
0.33 0.0625 0.9375 
0 0.125 0.9375 
0.33 0.125 0.9375 
0 0.1875 0.9375 
0.33 0.1875 0.9375 
0 0.25 0.9375 
0.33 0.25 0.9375 
0 0.3125 0.9375 
0.33 0.3125 0.9375 
0 0.375 0.9375 
0.33 0.375 0.9375 
0 0.4375 0.9375 
0.33 0.4375 0.9375 
0 0.5 0.9375 
0.33 0.5 0.9375 
0 0.5625 0.9375 
0.33 0.5625 0.9375 
0 0.625 0.9375 
0.33 0.625 0.9375 
0 0.6875 0.9375 
0.33 0.6875 0.9375 
0 0.75 0.9375 
0.33 0.75 0.9375 
0 0.8125 0.9375 
0.33 0.8125 0.9375 
0 0.875 0.9375 
0.33 0.875 0.9375 
0 0.9375 0.9375 
0.33 0.9375 0.9375 
0 1 0.9375 
0.33 1 0.9375 
0 0 1 
0.33 0 1 
0 0.0625 1 
0.33 0.0625 1 
0 0.125 1 
0.33 0.125 1 
0 0.1875 1 
0.33 0.1875 1 
0 0.25 1 
0.33 0.25 1 
0 0.3125 1 
0.33 0.3125 1 
0 0.375 1 
0.33 0.375 1 
0 0.4375 1 
0.33 0.4375 1 
0 0.5 1 
0.33 0.5 1 
0 0.5625 1 
0.33 0.5625 1 
0 0.625 1 
0.33 0.625 1 
0 0.6875 1 
0.33 0.6875 1 
0 0.75 1 
0.33 0.75 1 
0 0.8125 1 
0.33 0.8125 1 
0 0.875 1 
0.33 0.875 1 
0 0.9375 1 
0.33 0.9375 1 
0 1 1 
0.33 1 1 

CELLS 256 2304
8 0 1 3 2 34 35 37 36 
8 2 3 5 4 36 37 39 38 
8 4 5 7 6 38 39 41 40 
8 6 7 9 8 40 41 43 42 
8 8 9 11 10 42 43 45 44 
8 10 11 13 12 44 45 47 46 
8 12 13 15 14 46 47 49 48 
8 14 15 17 16 48 49 51 50 
8 16 17 19 18 50 51 53 52 
8 18 19 21 20 52 53 55 54 
8 20 21 23 22 54 55 57 56 
8 22 23 25 24 56 57 59 58 
8 24 25 27 26 58 59 61 60 
8 26 27 29 28 60 61 63 62 
8 28 29 31 30 62 63 65 64 
8 30 31 33 32 64 65 67 66 
8 34 35 37 36 68 69 71 70 
8 36 37 39 38 70 71 73 72 
8 38 39 41 40 72 73 75 74 
8 40 41 43 42 74 75 77 76 
8 42 43 45 44 76 77 79 78 
8 44 45 47 46 78 79 81 80 
8 46 47 49 48 80 81 83 82 
8 48 49 51 50 82 83 85 84 
8 50 51 53 52 84 85 87 86 
8 52 53 55 54 86 87 89 88 
8 54 55 57 56 88 89 91 90 
8 56 57 59 58 90 91 93 92 
8 58 59 61 60 92 93 95 94 
8 60 61 63 62 94 95 97 96 
8 62 63 65 64 96 97 99 98 
8 64 65 67 66 98 99 101 100 
8 68 69 71 70 102 103 105 104 
8 70 71 73 72 104 105 107 106 
8 72 73 75 74 106 107 109 108 
8 74 75 77 76 108 109 111 110 
8 76 77 79 78 110 111 113 112 
8 78 79 81 80 112 113 115 114 
8 80 81 83 82 114 115 117 116 
8 82 83 85 84 116 117 119 118 
8 84 85 87 86 118 119 121 120 
8 86 87 89 88 120 121 123 122 
8 88 89 91 90 122 123 125 124 
8 90 91 93 92 124 125 127 126 
8 92 93 95 94 126 127 129 128 
8 94 95 97 96 128 129 131 130 
8 96 97 99 98 130 131 133 132 
8 98 99 101 100 132 133 135 134 
8 102 103 105 104 136 137 139 138 
8 104 105 107 106 138 139 141 140 
8 106 107 109 108 140 141 143 142 
8 108 109 111 110 142 143 145 144 
8 110 111 113 112 144 145 147 146 
8 112 113 115 114 146 147 149 148 
8 114 115 117 116 148 149 151 150 
8 116 117 119 118 150 151 153 152 
8 118 119 121 120 152 153 155 154 
8 120 121 123 122 154 155 157 156 
8 122 123 125 124 156 157 159 158 
8 124 125 127 126 158 159 161 160 
8 126 127 129 128 160 161 163 162 
8 128 129 131 130 162 163 165 164 
8 130 131 133 132 164 165 167 166 
8 132 133 135 134 166 167 169 168 
8 136 137 139 138 170 171 173 172 
8 138 139 141 140 172 173 175 174 
8 140 141 143 142 174 175 177 176 
8 142 143 145 144 176 177 179 178 
8 144 145 147 146 178 179 181 180 
8 146 147 149 148 180 181 183 182 
8 148 149 151 150 182 183 185 184 
8 150 151 153 152 184 185 187 186 
8 152 153 155 154 186 187 189 188 
8 154 155 157 156 188 189 191 190 
8 156 157 159 158 190 191 193 192 
8 158 159 161 160 192 193 195 194 
8 160 161 163 162 194 195 197 196 
8 162 163 165 164 196 197 199 198 
8 164 165 167 166 198 199 201 200 
8 166 167 169 168 200 201 203 202 
8 170 171 173 172 204 205 207 206 
8 172 173 175 174 206 207 209 208 
8 174 175 177 176 208 209 211 210 
8 176 177 179 178 210 211 213 212 
8 178 179 181 180 212 213 215 214 
8 180 181 183 182 214 215 217 216 
8 182 183 185 184 216 217 219 218 
8 184 185 187 186 218 219 221 220 
8 186 187 189 188 220 221 223 222 
8 188 189 191 190 222 223 225 224 
8 190 191 193 192 224 225 227 226 
8 192 193 195 194 226 227 229 228 
8 194 195 197 196 228 229 231 230 
8 196 197 199 198 230 231 233 232 
8 198 199 201 200 232 233 235 234 
8 200 201 203 202 234 235 237 236 
8 204 205 207 206 238 239 241 240 
8 206 207 209 208 240 241 243 242 
8 208 209 211 210 242 243 245 244 
8 210 211 213 212 244 245 247 246 
8 212 213 215 214 246 247 249 248 
8 214 215 217 216 248 249 251 250 
8 216 217 219 218 250 251 253 252 
8 218 219 221 220 252 253 255 254 
8 220 221 223 222 254 255 257 256 
8 222 223 225 224 256 257 259 258 
8 224 225 227 226 258 259 261 260 
8 226 227 229 228 260 261 263 262 
8 228 229 231 230 262 263 265 264 
8 230 231 233 232 264 265 267 266 
8 232 233 235 234 266 267 269 268 
8 234 235 237 236 268 269 271 270 
8 238 239 241 240 272 273 275 274 
8 240 241 243 242 274 275 277 276 
8 242 243 245 244 276 277 279 278 
8 244 245 247 246 278 279 281 280 
8 246 247 249 248 280 281 283 282 
8 248 249 251 250 282 283 285 284 
8 250 251 253 252 284 285 287 286 
8 252 253 255 254 286 287 289 288 
8 254 255 257 256 288 289 291 290 
8 256 257 259 258 290 291 293 292 
8 258 259 261 260 292 293 295 294 
8 260 261 263 262 294 295 297 296 
8 262 263 265 264 296 297 299 298 
8 264 265 267 266 298 299 301 300 
8 266 267 269 268 300 301 303 302 
8 268 269 271 270 302 303 305 304 
8 272 273 275 274 306 307 309 308 
8 274 275 277 276 308 309 311 310 
8 276 277 279 278 310 311 313 312 
8 278 279 281 280 312 313 315 314 
8 280 281 283 282 314 315 317 316 
8 282 283 285 284 316 317 319 318 
8 284 285 287 286 318 319 321 320 
8 286 287 289 288 320 321 323 322 
8 288 289 291 290 322 323 325 324 
8 290 291 293 292 324 325 327 326 
8 292 293 295 294 326 327 329 328 
8 294 295 297 296 328 329 331 330 
8 296 297 299 298 330 331 333 332 
8 298 299 301 300 332 333 335 334 
8 300 301 303 302 334 335 337 336 
8 302 303 305 304 336 337 339 338 
8 306 307 309 308 340 341 343 342 
8 308 309 311 310 342 343 345 344 
8 310 311 313 312 344 345 347 346 
8 312 313 315 314 346 347 349 348 
8 314 315 317 316 348 349 351 350 
8 316 317 319 318 350 351 353 352 
8 318 319 321 320 352 353 355 354 
8 320 321 323 322 354 355 357 356 
8 322 323 325 324 356 357 359 358 
8 324 325 327 326 358 359 361 360 
8 326 327 329 328 360 361 363 362 
8 328 329 331 330 362 363 365 364 
8 330 331 333 332 364 365 367 366 
8 332 333 335 334 366 367 369 368 
8 334 335 337 336 368 369 371 370 
8 336 337 339 338 370 371 373 372 
8 340 341 343 342 374 375 377 376 
8 342 343 345 344 376 377 379 378 
8 344 345 347 346 378 379 381 380 
8 346 347 349 348 380 381 383 382 
8 348 349 351 350 382 383 385 384 
8 350 351 353 352 384 385 387 386 
8 352 353 355 354 386 387 389 388 
8 354 355 357 356 388 389 391 390 
8 356 357 359 358 390 391 393 392 
8 358 359 361 360 392 393 395 394 
8 360 361 363 362 394 395 397 396 
8 362 363 365 364 396 397 399 398 
8 364 365 367 366 398 399 401 400 
8 366 367 369 368 400 401 403 402 
8 368 369 371 370 402 403 405 404 
8 370 371 373 372 404 405 407 406 
8 374 375 377 376 408 409 411 410 
8 376 377 379 378 410 411 413 412 
8 378 379 381 380 412 413 415 414 
8 380 381 383 382 414 415 417 416 
8 382 383 385 384 416 417 419 418 
8 384 385 387 386 418 419 421 420 
8 386 387 389 388 420 421 423 422 
8 388 389 391 390 422 423 425 424 
8 390 391 393 392 424 425 427 426 
8 392 393 395 394 426 427 429 428 
8 394 395 397 396 428 429 431 430 
8 396 397 399 398 430 431 433 432 
8 398 399 401 400 432 433 435 434 
8 400 401 403 402 434 435 437 436 
8 402 403 405 404 436 437 439 438 
8 404 405 407 406 438 439 441 440 
8 408 409 411 410 442 443 445 444 
8 410 411 413 412 444 445 447 446 
8 412 413 415 414 446 447 449 448 
8 414 415 417 416 448 449 451 450 
8 416 417 419 418 450 451 453 452 
8 418 419 421 420 452 453 455 454 
8 420 421 423 422 454 455 457 456 
8 422 423 425 424 456 457 459 458 
8 424 425 427 426 458 459 461 460 
8 426 427 429 428 460 461 463 462 
8 428 429 431 430 462 463 465 464 
8 430 431 433 432 464 465 467 466 
8 432 433 435 434 466 467 469 468 
8 434 435 437 436 468 469 471 470 
8 436 437 439 438 470 471 473 472 
8 438 439 441 440 472 473 475 474 
8 442 443 445 444 476 477 479 478 
8 444 445 447 446 478 479 481 480 
8 446 447 449 448 480 481 483 482 
8 448 449 451 450 482 483 485 484 
8 450 451 453 452 484 485 487 486 
8 452 453 455 454 486 487 489 488 
8 454 455 457 456 488 489 491 490 
8 456 457 459 458 490 491 493 492 
8 458 459 461 460 492 493 495 494 
8 460 461 463 462 494 495 497 496 
8 462 463 465 464 496 497 499 498 
8 464 465 467 466 498 499 501 500 
8 466 467 469 468 500 501 503 502 
8 468 469 471 470 502 503 505 504 
8 470 471 473 472 504 505 507 506 
8 472 473 475 474 506 507 509 508 
8 476 477 479 478 510 511 513 512 
8 478 479 481 480 512 513 515 514 
8 480 481 483 482 514 515 517 516 
8 482 483 485 484 516 517 519 518 
8 484 485 487 486 518 519 521 520 
8 486 487 489 488 520 521 523 522 
8 488 489 491 490 522 523 525 524 
8 490 491 493 492 524 525 527 526 
8 492 493 495 494 526 527 529 528 
8 494 495 497 496 528 529 531 530 
8 496 497 499 498 530 531 533 532 
8 498 499 501 500 532 533 535 534 
8 500 501 503 502 534 535 537 536 
8 502 503 505 504 536 537 539 538 
8 504 505 507 506 538 539 541 540 
8 506 507 509 508 540 541 543 542 
8 510 511 513 512 544 545 547 546 
8 512 513 515 514 546 547 549 548 
8 514 515 517 516 548 549 551 550 
8 516 517 519 518 550 551 553 552 
8 518 519 521 520 552 553 555 554 
8 520 521 523 522 554 555 557 556 
8 522 523 525 524 556 557 559 558 
8 524 525 527 526 558 559 561 560 
8 526 527 529 528 560 561 563 562 
8 528 529 531 530 562 563 565 564 
8 530 531 533 532 564 565 567 566 
8 532 533 535 534 566 567 569 568 
8 534 535 537 536 568 569 571 570 
8 536 537 539 538 570 571 573 572 
8 538 539 541 540 572 573 575 574 
8 540 541 543 542 574 575 577 576 

CELL_TYPES 256
72
72
72
72
72
72
72
72
72
72
72
72
72
72
72
72
72
72
72
72
72
72
72
72
72
72
72
72
72
72
72
72
72
72
72
72
72
72
72
72
72
72
72
72
72
72
72
72
72
72
72
72
72
72
72
72
72
72
72
72
72
72
72
72
72
72
72
72
72
72
72
72
72
72
72
72
72
72
72
72
72
72
72
72
72
72
72
72
72
72
72
72
72
72
72
72
72
72
72
72
72
72
72
72
72
72
72
72
72
72
72
72
72
72
72
72
72
72
72
72
72
72
72
72
72
72
72
72
72
72
72
72
72
72
72
72
72
72
72
72
72
72
72
72
72
72
72
72
72
72
72
72
72
72
72
72
72
72
72
72
72
72
72
72
72
72
72
72
72
72
72
72
72
72
72
72
72
72
72
72
72
72
72
72
72
72
72
72
72
72
72
72
72
72
72
72
72
72
72
72
72
72
72
72
72
72
72
72
72
72
72
72
72
72
72
72
72
72
72
72
72
72
72
72
72
72
72
72
72
72
72
72
72
72
72
72
72
72
72
72
72
72
72
72
72
72
72
72
72
72
72
72
72
72
72
72

POINT_DATA 578
SCALARS point_var float 1
LOOKUP_TABLE default
0
1
2
3
4
5
6
7
8
9
10
11
12
13
14
15
16
17
18
19
20
21
22
23
24
25
26
27
28
29
30
31
32
33
34
35
36
37
38
39
40
41
42
43
44
45
46
47
48
49
50
51
52
53
54
55
56
57
58
59
60
61
62
63
64
65
66
67
68
69
70
71
72
73
74
75
76
77
78
79
80
81
82
83
84
85
86
87
88
89
90
91
92
93
94
95
96
97
98
99
100
101
102
103
104
105
106
107
108
109
110
111
112
113
114
115
116
117
118
119
120
121
122
123
124
125
126
127
128
129
130
131
132
133
134
135
136
137
138
139
140
141
142
143
144
145
146
147
148
149
150
151
152
153
154
155
156
157
158
159
160
161
162
163
164
165
166
167
168
169
170
171
172
173
174
175
176
177
178
179
180
181
182
183
184
185
186
187
188
189
190
191
192
193
194
195
196
197
198
199
200
201
202
203
204
205
206
207
208
209
210
211
212
213
214
215
216
217
218
219
220
221
222
223
224
225
226
227
228
229
230
231
232
233
234
235
236
237
238
239
240
241
242
243
244
245
246
247
248
249
250
251
252
253
254
255
256
257
258
259
260
261
262
263
264
265
266
267
268
269
270
271
272
273
274
275
276
277
278
279
280
281
282
283
284
285
286
287
288
289
290
291
292
293
294
295
296
297
298
299
300
301
302
303
304
305
306
307
308
309
310
311
312
313
314
315
316
317
318
319
320
321
322
323
324
325
326
327
328
329
330
331
332
333
334
335
336
337
338
339
340
341
342
343
344
345
346
347
348
349
350
351
352
353
354
355
356
357
358
359
360
361
362
363
364
365
366
367
368
369
370
371
372
373
374
375
376
377
378
379
380
381
382
383
384
385
386
387
388
389
390
391
392
393
394
395
396
397
398
399
400
401
402
403
404
405
406
407
408
409
410
411
412
413
414
415
416
417
418
419
420
421
422
423
424
425
426
427
428
429
430
431
432
433
434
435
436
437
438
439
440
441
442
443
444
445
446
447
448
449
450
451
452
453
454
455
456
457
458
459
460
461
462
463
464
465
466
467
468
469
470
471
472
473
474
475
476
477
478
479
480
481
482
483
484
485
486
487
488
489
490
491
492
493
494
495
496
497
498
499
500
501
502
503
504
505
506
507
508
509
510
511
512
513
514
515
516
517
518
519
520
521
522
523
524
525
526
527
528
529
530
531
532
533
534
535
536
537
538
539
540
541
542
543
544
545
546
547
548
549
550
551
552
553
554
555
556
557
558
559
560
561
562
563
564
565
566
567
568
569
570
571
572
573
574
575
576
577

VECTORS point_vec float
0 1 2
0 1 2
0 1 2
0 1 2
0 1 2
0 1 2
0 1 2
0 1 2
0 1 2
0 1 2
0 1 2
0 1 2
0 1 2
0 1 2
0 1 2
0 1 2
0 1 2
0 1 2
0 1 2
0 1 2
0 1 2
0 1 2
0 1 2
0 1 2
0 1 2
0 1 2
0 1 2
0 1 2
0 1 2
0 1 2
0 1 2
0 1 2
0 1 2
0 1 2
0 1 2
0 1 2
0 1 2
0 1 2
0 1 2
0 1 2
0 1 2
0 1 2
0 1 2
0 1 2
0 1 2
0 1 2
0 1 2
0 1 2
0 1 2
0 1 2
0 1 2
0 1 2
0 1 2
0 1 2
0 1 2
0 1 2
0 1 2
0 1 2
0 1 2
0 1 2
0 1 2
0 1 2
0 1 2
0 1 2
0 1 2
0 1 2
0 1 2
0 1 2
0 1 2
0 1 2
0 1 2
0 1 2
0 1 2
0 1 2
0 1 2
0 1 2
0 1 2
0 1 2
0 1 2
0 1 2
0 1 2
0 1 2
0 1 2
0 1 2
0 1 2
0 1 2
0 1 2
0 1 2
0 1 2
0 1 2
0 1 2
0 1 2
0 1 2
0 1 2
0 1 2
0 1 2
0 1 2
0 1 2
0 1 2
0 1 2
0 1 2
0 1 2
0 1 2
0 1 2
0 1 2
0 1 2
0 1 2
0 1 2
0 1 2
0 1 2
0 1 2
0 1 2
0 1 2
0 1 2
0 1 2
0 1 2
0 1 2
0 1 2
0 1 2
0 1 2
0 1 2
0 1 2
0 1 2
0 1 2
0 1 2
0 1 2
0 1 2
0 1 2
0 1 2
0 1 2
0 1 2
0 1 2
0 1 2
0 1 2
0 1 2
0 1 2
0 1 2
0 1 2
0 1 2
0 1 2
0 1 2
0 1 2
0 1 2
0 1 2
0 1 2
0 1 2
0 1 2
0 1 2
0 1 2
0 1 2
0 1 2
0 1 2
0 1 2
0 1 2
0 1 2
0 1 2
0 1 2
0 1 2
0 1 2
0 1 2
0 1 2
0 1 2
0 1 2
0 1 2
0 1 2
0 1 2
0 1 2
0 1 2
0 1 2
0 1 2
0 1 2
0 1 2
0 1 2
0 1 2
0 1 2
0 1 2
0 1 2
0 1 2
0 1 2
0 1 2
0 1 2
0 1 2
0 1 2
0 1 2
0 1 2
0 1 2
0 1 2
0 1 2
0 1 2
0 1 2
0 1 2
0 1 2
0 1 2
0 1 2
0 1 2
0 1 2
0 1 2
0 1 2
0 1 2
0 1 2
0 1 2
0 1 2
0 1 2
0 1 2
0 1 2
0 1 2
0 1 2
0 1 2
0 1 2
0 1 2
0 1 2
0 1 2
0 1 2
0 1 2
0 1 2
0 1 2
0 1 2
0 1 2
0 1 2
0 1 2
0 1 2
0 1 2
0 1 2
0 1 2
0 1 2
0 1 2
0 1 2
0 1 2
0 1 2
0 1 2
0 1 2
0 1 2
0 1 2
0 1 2
0 1 2
0 1 2
0 1 2
0 1 2
0 1 2
0 1 2
0 1 2
0 1 2
0 1 2
0 1 2
0 1 2
0 1 2
0 1 2
0 1 2
0 1 2
0 1 2
0 1 2
0 1 2
0 1 2
0 1 2
0 1 2
0 1 2
0 1 2
0 1 2
0 1 2
0 1 2
0 1 2
0 1 2
0 1 2
0 1 2
0 1 2
0 1 2
0 1 2
0 1 2
0 1 2
0 1 2
0 1 2
0 1 2
0 1 2
0 1 2
0 1 2
0 1 2
0 1 2
0 1 2
0 1 2
0 1 2
0 1 2
0 1 2
0 1 2
0 1 2
0 1 2
0 1 2
0 1 2
0 1 2
0 1 2
0 1 2
0 1 2
0 1 2
0 1 2
0 1 2
0 1 2
0 1 2
0 1 2
0 1 2
0 1 2
0 1 2
0 1 2
0 1 2
0 1 2
0 1 2
0 1 2
0 1 2
0 1 2
0 1 2
0 1 2
0 1 2
0 1 2
0 1 2
0 1 2
0 1 2
0 1 2
0 1 2
0 1 2
0 1 2
0 1 2
0 1 2
0 1 2
0 1 2
0 1 2
0 1 2
0 1 2
0 1 2
0 1 2
0 1 2
0 1 2
0 1 2
0 1 2
0 1 2
0 1 2
0 1 2
0 1 2
0 1 2
0 1 2
0 1 2
0 1 2
0 1 2
0 1 2
0 1 2
0 1 2
0 1 2
0 1 2
0 1 2
0 1 2
0 1 2
0 1 2
0 1 2
0 1 2
0 1 2
0 1 2
0 1 2
0 1 2
0 1 2
0 1 2
0 1 2
0 1 2
0 1 2
0 1 2
0 1 2
0 1 2
0 1 2
0 1 2
0 1 2
0 1 2
0 1 2
0 1 2
0 1 2
0 1 2
0 1 2
0 1 2
0 1 2
0 1 2
0 1 2
0 1 2
0 1 2
0 1 2
0 1 2
0 1 2
0 1 2
0 1 2
0 1 2
0 1 2
0 1 2
0 1 2
0 1 2
0 1 2
0 1 2
0 1 2
0 1 2
0 1 2
0 1 2
0 1 2
0 1 2
0 1 2
0 1 2
0 1 2
0 1 2
0 1 2
0 1 2
0 1 2
0 1 2
0 1 2
0 1 2
0 1 2
0 1 2
0 1 2
0 1 2
0 1 2
0 1 2
0 1 2
0 1 2
0 1 2
0 1 2
0 1 2
0 1 2
0 1 2
0 1 2
0 1 2
0 1 2
0 1 2
0 1 2
0 1 2
0 1 2
0 1 2
0 1 2
0 1 2
0 1 2
0 1 2
0 1 2
0 1 2
0 1 2
0 1 2
0 1 2
0 1 2
0 1 2
0 1 2
0 1 2
0 1 2
0 1 2
0 1 2
0 1 2
0 1 2
0 1 2
0 1 2
0 1 2
0 1 2
0 1 2
0 1 2
0 1 2
0 1 2
0 1 2
0 1 2
0 1 2
0 1 2
0 1 2
0 1 2
0 1 2
0 1 2
0 1 2
0 1 2
0 1 2
0 1 2
0 1 2
0 1 2
0 1 2
0 1 2
0 1 2
0 1 2
0 1 2
0 1 2
0 1 2
0 1 2
0 1 2
0 1 2
0 1 2
0 1 2
0 1 2
0 1 2
0 1 2
0 1 2
0 1 2
0 1 2
0 1 2
0 1 2
0 1 2
0 1 2
0 1 2
0 1 2
0 1 2
0 1 2
0 1 2
0 1 2
0 1 2
0 1 2
0 1 2
0 1 2
0 1 2
0 1 2
0 1 2
0 1 2
0 1 2
0 1 2
0 1 2
0 1 2
0 1 2
0 1 2
0 1 2
0 1 2
0 1 2
0 1 2
0 1 2
0 1 2
0 1 2
0 1 2
0 1 2
0 1 2
0 1 2
0 1 2
0 1 2
0 1 2
0 1 2
0 1 2
0 1 2
0 1 2
0 1 2
0 1 2
0 1 2
0 1 2
0 1 2
0 1 2
0 1 2
0 1 2
0 1 2
0 1 2
0 1 2
0 1 2
0 1 2
0 1 2
0 1 2
0 1 2
0 1 2
0 1 2
0 1 2
0 1 2
0 1 2
0 1 2
0 1 2
0 1 2
0 1 2
0 1 2
0 1 2
0 1 2
0 1 2
0 1 2
0 1 2
0 1 2
0 1 2
0 1 2
0 1 2
0 1 2
0 1 2
0 1 2
0 1 2
0 1 2
0 1 2
0 1 2
0 1 2
0 1 2
0 1 2
0 1 2
0 1 2
0 1 2
0 1 2
0 1 2
0 1 2

CELL_DATA 256
SCALARS elem_var float 1
LOOKUP_TABLE default 
0
1
2
3
4
5
6
7
8
9
10
11
12
13
14
15
16
17
18
19
20
21
22
23
24
25
26
27
28
29
30
31
32
33
34
35
36
37
38
39
40
41
42
43
44
45
46
47
48
49
50
51
52
53
54
55
56
57
58
59
60
61
62
63
64
65
66
67
68
69
70
71
72
73
74
75
76
77
78
79
80
81
82
83
84
85
86
87
88
89
90
91
92
93
94
95
96
97
98
99
100
101
102
103
104
105
106
107
108
109
110
111
112
113
114
115
116
117
118
119
120
121
122
123
124
125
126
127
128
129
130
131
132
133
134
135
136
137
138
139
140
141
142
143
144
145
146
147
148
149
150
151
152
153
154
155
156
157
158
159
160
161
162
163
164
165
166
167
168
169
170
171
172
173
174
175
176
177
178
179
180
181
182
183
184
185
186
187
188
189
190
191
192
193
194
195
196
197
198
199
200
201
202
203
204
205
206
207
208
209
210
211
212
213
214
215
216
217
218
219
220
221
222
223
224
225
226
227
228
229
230
231
232
233
234
235
236
237
238
239
240
241
242
243
244
245
246
247
248
249
250
251
252
253
254
255

SCALARS elem_var2 float 1
LOOKUP_TABLE default 
0
18446744073709551615
18446744073709551614
18446744073709551613
18446744073709551612
18446744073709551611
18446744073709551610
18446744073709551609
18446744073709551608
18446744073709551607
18446744073709551606
18446744073709551605
18446744073709551604
18446744073709551603
18446744073709551602
18446744073709551601
18446744073709551600
18446744073709551599
18446744073709551598
18446744073709551597
18446744073709551596
18446744073709551595
18446744073709551594
18446744073709551593
18446744073709551592
18446744073709551591
18446744073709551590
18446744073709551589
18446744073709551588
18446744073709551587
18446744073709551586
18446744073709551585
18446744073709551584
18446744073709551583
18446744073709551582
18446744073709551581
18446744073709551580
18446744073709551579
18446744073709551578
18446744073709551577
18446744073709551576
18446744073709551575
18446744073709551574
18446744073709551573
18446744073709551572
18446744073709551571
18446744073709551570
18446744073709551569
18446744073709551568
18446744073709551567
18446744073709551566
18446744073709551565
18446744073709551564
18446744073709551563
18446744073709551562
18446744073709551561
18446744073709551560
18446744073709551559
18446744073709551558
18446744073709551557
18446744073709551556
18446744073709551555
18446744073709551554
18446744073709551553
18446744073709551552
18446744073709551551
18446744073709551550
18446744073709551549
18446744073709551548
18446744073709551547
18446744073709551546
18446744073709551545
18446744073709551544
18446744073709551543
18446744073709551542
18446744073709551541
18446744073709551540
18446744073709551539
18446744073709551538
18446744073709551537
18446744073709551536
18446744073709551535
18446744073709551534
18446744073709551533
18446744073709551532
18446744073709551531
18446744073709551530
18446744073709551529
18446744073709551528
18446744073709551527
18446744073709551526
18446744073709551525
18446744073709551524
18446744073709551523
18446744073709551522
18446744073709551521
18446744073709551520
18446744073709551519
18446744073709551518
18446744073709551517
18446744073709551516
18446744073709551515
18446744073709551514
18446744073709551513
18446744073709551512
18446744073709551511
18446744073709551510
18446744073709551509
18446744073709551508
18446744073709551507
18446744073709551506
18446744073709551505
18446744073709551504
18446744073709551503
18446744073709551502
18446744073709551501
18446744073709551500
18446744073709551499
18446744073709551498
18446744073709551497
18446744073709551496
18446744073709551495
18446744073709551494
18446744073709551493
18446744073709551492
18446744073709551491
18446744073709551490
18446744073709551489
18446744073709551488
18446744073709551487
18446744073709551486
18446744073709551485
18446744073709551484
18446744073709551483
18446744073709551482
18446744073709551481
18446744073709551480
18446744073709551479
18446744073709551478
18446744073709551477
18446744073709551476
18446744073709551475
18446744073709551474
18446744073709551473
18446744073709551472
18446744073709551471
18446744073709551470
18446744073709551469
18446744073709551468
18446744073709551467
18446744073709551466
18446744073709551465
18446744073709551464
18446744073709551463
18446744073709551462
18446744073709551461
18446744073709551460
18446744073709551459
18446744073709551458
18446744073709551457
18446744073709551456
18446744073709551455
18446744073709551454
18446744073709551453
18446744073709551452
18446744073709551451
18446744073709551450
18446744073709551449
18446744073709551448
18446744073709551447
18446744073709551446
18446744073709551445
18446744073709551444
18446744073709551443
18446744073709551442
18446744073709551441
18446744073709551440
18446744073709551439
18446744073709551438
18446744073709551437
18446744073709551436
18446744073709551435
18446744073709551434
18446744073709551433
18446744073709551432
18446744073709551431
18446744073709551430
18446744073709551429
18446744073709551428
18446744073709551427
18446744073709551426
18446744073709551425
18446744073709551424
18446744073709551423
18446744073709551422
18446744073709551421
18446744073709551420
18446744073709551419
18446744073709551418
18446744073709551417
18446744073709551416
18446744073709551415
18446744073709551414
18446744073709551413
18446744073709551412
18446744073709551411
18446744073709551410
18446744073709551409
18446744073709551408
18446744073709551407
18446744073709551406
18446744073709551405