# vtk DataFile Version 2.0
Mesh for Fierro
ASCII
DATASET UNSTRUCTURED_GRID

POINTS 578 float
0 0 0 
0.0625 0 0 
0.125 0 0 
0.1875 0 0 
0.25 0 0 
0.3125 0 0 
0.375 0 0 
0.4375 0 0 
0.5 0 0 
0.5625 0 0 
0.625 0 0 
0.6875 0 0 
0.75 0 0 
0.8125 0 0 
0.875 0 0 
0.9375 0 0 
1 0 0 
0 0.33 0 
0.0625 0.33 0 
0.125 0.33 0 
0.1875 0.33 0 
0.25 0.33 0 
0.3125 0.33 0 
0.375 0.33 0 
0.4375 0.33 0 
0.5 0.33 0 
0.5625 0.33 0 
0.625 0.33 0 
0.6875 0.33 0 
0.75 0.33 0 
0.8125 0.33 0 
0.875 0.33 0 
0.9375 0.33 0 
1 0.33 0 
0 0 0.0625 
0.0625 0 0.0625 
0.125 0 0.0625 
0.1875 0 0.0625 
0.25 0 0.0625 
0.3125 0 0.0625 
0.375 0 0.0625 
0.4375 0 0.0625 
0.5 0 0.0625 
0.5625 0 0.0625 
0.625 0 0.0625 
0.6875 0 0.0625 
0.75 0 0.0625 
0.8125 0 0.0625 
0.875 0 0.0625 
0.9375 0 0.0625 
1 0 0.0625 
0 0.33 0.0625 
0.0625 0.33 0.0625 
0.125 0.33 0.0625 
0.1875 0.33 0.0625 
0.25 0.33 0.0625 
0.3125 0.33 0.0625 
0.375 0.33 0.0625 
0.4375 0.33 0.0625 
0.5 0.33 0.0625 
0.5625 0.33 0.0625 
0.625 0.33 0.0625 
0.6875 0.33 0.0625 
0.75 0.33 0.0625 
0.8125 0.33 0.0625 
0.875 0.33 0.0625 
0.9375 0.33 0.0625 
1 0.33 0.0625 
0 0 0.125 
0.0625 0 0.125 
0.125 0 0.125 
0.1875 0 0.125 
0.25 0 0.125 
0.3125 0 0.125 
0.375 0 0.125 
0.4375 0 0.125 
0.5 0 0.125 
0.5625 0 0.125 
0.625 0 0.125 
0.6875 0 0.125 
0.75 0 0.125 
0.8125 0 0.125 
0.875 0 0.125 
0.9375 0 0.125 
1 0 0.125 
0 0.33 0.125 
0.0625 0.33 0.125 
0.125 0.33 0.125 
0.1875 0.33 0.125 
0.25 0.33 0.125 
0.3125 0.33 0.125 
0.375 0.33 0.125 
0.4375 0.33 0.125 
0.5 0.33 0.125 
0.5625 0.33 0.125 
0.625 0.33 0.125 
0.6875 0.33 0.125 
0.75 0.33 0.125 
0.8125 0.33 0.125 
0.875 0.33 0.125 
0.9375 0.33 0.125 
1 0.33 0.125 
0 0 0.1875 
0.0625 0 0.1875 
0.125 0 0.1875 
0.1875 0 0.1875 
0.25 0 0.1875 
0.3125 0 0.1875 
0.375 0 0.1875 
0.4375 0 0.1875 
0.5 0 0.1875 
0.5625 0 0.1875 
0.625 0 0.1875 
0.6875 0 0.1875 
0.75 0 0.1875 
0.8125 0 0.1875 
0.875 0 0.1875 
0.9375 0 0.1875 
1 0 0.1875 
0 0.33 0.1875 
0.0625 0.33 0.1875 
0.125 0.33 0.1875 
0.1875 0.33 0.1875 
0.25 0.33 0.1875 
0.3125 0.33 0.1875 
0.375 0.33 0.1875 
0.4375 0.33 0.1875 
0.5 0.33 0.1875 
0.5625 0.33 0.1875 
0.625 0.33 0.1875 
0.6875 0.33 0.1875 
0.75 0.33 0.1875 
0.8125 0.33 0.1875 
0.875 0.33 0.1875 
0.9375 0.33 0.1875 
1 0.33 0.1875 
0 0 0.25 
0.0625 0 0.25 
0.125 0 0.25 
0.1875 0 0.25 
0.25 0 0.25 
0.3125 0 0.25 
0.375 0 0.25 
0.4375 0 0.25 
0.5 0 0.25 
0.5625 0 0.25 
0.625 0 0.25 
0.6875 0 0.25 
0.75 0 0.25 
0.8125 0 0.25 
0.875 0 0.25 
0.9375 0 0.25 
1 0 0.25 
0 0.33 0.25 
0.0625 0.33 0.25 
0.125 0.33 0.25 
0.1875 0.33 0.25 
0.25 0.33 0.25 
0.3125 0.33 0.25 
0.375 0.33 0.25 
0.4375 0.33 0.25 
0.5 0.33 0.25 
0.5625 0.33 0.25 
0.625 0.33 0.25 
0.6875 0.33 0.25 
0.75 0.33 0.25 
0.8125 0.33 0.25 
0.875 0.33 0.25 
0.9375 0.33 0.25 
1 0.33 0.25 
0 0 0.3125 
0.0625 0 0.3125 
0.125 0 0.3125 
0.1875 0 0.3125 
0.25 0 0.3125 
0.3125 0 0.3125 
0.375 0 0.3125 
0.4375 0 0.3125 
0.5 0 0.3125 
0.5625 0 0.3125 
0.625 0 0.3125 
0.6875 0 0.3125 
0.75 0 0.3125 
0.8125 0 0.3125 
0.875 0 0.3125 
0.9375 0 0.3125 
1 0 0.3125 
0 0.33 0.3125 
0.0625 0.33 0.3125 
0.125 0.33 0.3125 
0.1875 0.33 0.3125 
0.25 0.33 0.3125 
0.3125 0.33 0.3125 
0.375 0.33 0.3125 
0.4375 0.33 0.3125 
0.5 0.33 0.3125 
0.5625 0.33 0.3125 
0.625 0.33 0.3125 
0.6875 0.33 0.3125 
0.75 0.33 0.3125 
0.8125 0.33 0.3125 
0.875 0.33 0.3125 
0.9375 0.33 0.3125 
1 0.33 0.3125 
0 0 0.375 
0.0625 0 0.375 
0.125 0 0.375 
0.1875 0 0.375 
0.25 0 0.375 
0.3125 0 0.375 
0.375 0 0.375 
0.4375 0 0.375 
0.5 0 0.375 
0.5625 0 0.375 
0.625 0 0.375 
0.6875 0 0.375 
0.75 0 0.375 
0.8125 0 0.375 
0.875 0 0.375 
0.9375 0 0.375 
1 0 0.375 
0 0.33 0.375 
0.0625 0.33 0.375 
0.125 0.33 0.375 
0.1875 0.33 0.375 
0.25 0.33 0.375 
0.3125 0.33 0.375 
0.375 0.33 0.375 
0.4375 0.33 0.375 
0.5 0.33 0.375 
0.5625 0.33 0.375 
0.625 0.33 0.375 
0.6875 0.33 0.375 
0.75 0.33 0.375 
0.8125 0.33 0.375 
0.875 0.33 0.375 
0.9375 0.33 0.375 
1 0.33 0.375 
0 0 0.4375 
0.0625 0 0.4375 
0.125 0 0.4375 
0.1875 0 0.4375 
0.25 0 0.4375 
0.3125 0 0.4375 
0.375 0 0.4375 
0.4375 0 0.4375 
0.5 0 0.4375 
0.5625 0 0.4375 
0.625 0 0.4375 
0.6875 0 0.4375 
0.75 0 0.4375 
0.8125 0 0.4375 
0.875 0 0.4375 
0.9375 0 0.4375 
1 0 0.4375 
0 0.33 0.4375 
0.0625 0.33 0.4375 
0.125 0.33 0.4375 
0.1875 0.33 0.4375 
0.25 0.33 0.4375 
0.3125 0.33 0.4375 
0.375 0.33 0.4375 
0.4375 0.33 0.4375 
0.5 0.33 0.4375 
0.5625 0.33 0.4375 
0.625 0.33 0.4375 
0.6875 0.33 0.4375 
0.75 0.33 0.4375 
0.8125 0.33 0.4375 
0.875 0.33 0.4375 
0.9375 0.33 0.4375 
1 0.33 0.4375 
0 0 0.5 
0.0625 0 0.5 
0.125 0 0.5 
0.1875 0 0.5 
0.25 0 0.5 
0.3125 0 0.5 
0.375 0 0.5 
0.4375 0 0.5 
0.5 0 0.5 
0.5625 0 0.5 
0.625 0 0.5 
0.6875 0 0.5 
0.75 0 0.5 
0.8125 0 0.5 
0.875 0 0.5 
0.9375 0 0.5 
1 0 0.5 
0 0.33 0.5 
0.0625 0.33 0.5 
0.125 0.33 0.5 
0.1875 0.33 0.5 
0.25 0.33 0.5 
0.3125 0.33 0.5 
0.375 0.33 0.5 
0.4375 0.33 0.5 
0.5 0.33 0.5 
0.5625 0.33 0.5 
0.625 0.33 0.5 
0.6875 0.33 0.5 
0.75 0.33 0.5 
0.8125 0.33 0.5 
0.875 0.33 0.5 
0.9375 0.33 0.5 
1 0.33 0.5 
0 0 0.5625 
0.0625 0 0.5625 
0.125 0 0.5625 
0.1875 0 0.5625 
0.25 0 0.5625 
0.3125 0 0.5625 
0.375 0 0.5625 
0.4375 0 0.5625 
0.5 0 0.5625 
0.5625 0 0.5625 
0.625 0 0.5625 
0.6875 0 0.5625 
0.75 0 0.5625 
0.8125 0 0.5625 
0.875 0 0.5625 
0.9375 0 0.5625 
1 0 0.5625 
0 0.33 0.5625 
0.0625 0.33 0.5625 
0.125 0.33 0.5625 
0.1875 0.33 0.5625 
0.25 0.33 0.5625 
0.3125 0.33 0.5625 
0.375 0.33 0.5625 
0.4375 0.33 0.5625 
0.5 0.33 0.5625 
0.5625 0.33 0.5625 
0.625 0.33 0.5625 
0.6875 0.33 0.5625 
0.75 0.33 0.5625 
0.8125 0.33 0.5625 
0.875 0.33 0.5625 
0.9375 0.33 0.5625 
1 0.33 0.5625 
0 0 0.625 
0.0625 0 0.625 
0.125 0 0.625 
0.1875 0 0.625 
0.25 0 0.625 
0.3125 0 0.625 
0.375 0 0.625 
0.4375 0 0.625 
0.5 0 0.625 
0.5625 0 0.625 
0.625 0 0.625 
0.6875 0 0.625 
0.75 0 0.625 
0.8125 0 0.625 
0.875 0 0.625 
0.9375 0 0.625 
1 0 0.625 
0 0.33 0.625 
0.0625 0.33 0.625 
0.125 0.33 0.625 
0.1875 0.33 0.625 
0.25 0.33 0.625 
0.3125 0.33 0.625 
0.375 0.33 0.625 
0.4375 0.33 0.625 
0.5 0.33 0.625 
0.5625 0.33 0.625 
0.625 0.33 0.625 
0.6875 0.33 0.625 
0.75 0.33 0.625 
0.8125 0.33 0.625 
0.875 0.33 0.625 
0.9375 0.33 0.625 
1 0.33 0.625 
0 0 0.6875 
0.0625 0 0.6875 
0.125 0 0.6875 
0.1875 0 0.6875 
0.25 0 0.6875 
0.3125 0 0.6875 
0.375 0 0.6875 
0.4375 0 0.6875 
0.5 0 0.6875 
0.5625 0 0.6875 
0.625 0 0.6875 
0.6875 0 0.6875 
0.75 0 0.6875 
0.8125 0 0.6875 
0.875 0 0.6875 
0.9375 0 0.6875 
1 0 0.6875 
0 0.33 0.6875 
0.0625 0.33 0.6875 
0.125 0.33 0.6875 
0.1875 0.33 0.6875 
0.25 0.33 0.6875 
0.3125 0.33 0.6875 
0.375 0.33 0.6875 
0.4375 0.33 0.6875 
0.5 0.33 0.6875 
0.5625 0.33 0.6875 
0.625 0.33 0.6875 
0.6875 0.33 0.6875 
0.75 0.33 0.6875 
0.8125 0.33 0.6875 
0.875 0.33 0.6875 
0.9375 0.33 0.6875 
1 0.33 0.6875 
0 0 0.75 
0.0625 0 0.75 
0.125 0 0.75 
0.1875 0 0.75 
0.25 0 0.75 
0.3125 0 0.75 
0.375 0 0.75 
0.4375 0 0.75 
0.5 0 0.75 
0.5625 0 0.75 
0.625 0 0.75 
0.6875 0 0.75 
0.75 0 0.75 
0.8125 0 0.75 
0.875 0 0.75 
0.9375 0 0.75 
1 0 0.75 
0 0.33 0.75 
0.0625 0.33 0.75 
0.125 0.33 0.75 
0.1875 0.33 0.75 
0.25 0.33 0.75 
0.3125 0.33 0.75 
0.375 0.33 0.75 
0.4375 0.33 0.75 
0.5 0.33 0.75 
0.5625 0.33 0.75 
0.625 0.33 0.75 
0.6875 0.33 0.75 
0.75 0.33 0.75 
0.8125 0.33 0.75 
0.875 0.33 0.75 
0.9375 0.33 0.75 
1 0.33 0.75 
0 0 0.8125 
0.0625 0 0.8125 
0.125 0 0.8125 
0.1875 0 0.8125 
0.25 0 0.8125 
0.3125 0 0.8125 
0.375 0 0.8125 
0.4375 0 0.8125 
0.5 0 0.8125 
0.5625 0 0.8125 
0.625 0 0.8125 
0.6875 0 0.8125 
0.75 0 0.8125 
0.8125 0 0.8125 
0.875 0 0.8125 
0.9375 0 0.8125 
1 0 0.8125 
0 0.33 0.8125 
0.0625 0.33 0.8125 
0.125 0.33 0.8125 
0.1875 0.33 0.8125 
0.25 0.33 0.8125 
0.3125 0.33 0.8125 
0.375 0.33 0.8125 
0.4375 0.33 0.8125 
0.5 0.33 0.8125 
0.5625 0.33 0.8125 
0.625 0.33 0.8125 
0.6875 0.33 0.8125 
0.75 0.33 0.8125 
0.8125 0.33 0.8125 
0.875 0.33 0.8125 
0.9375 0.33 0.8125 
1 0.33 0.8125 
0 0 0.875 
0.0625 0 0.875 
0.125 0 0.875 
0.1875 0 0.875 
0.25 0 0.875 
0.3125 0 0.875 
0.375 0 0.875 
0.4375 0 0.875 
0.5 0 0.875 
0.5625 0 0.875 
0.625 0 0.875 
0.6875 0 0.875 
0.75 0 0.875 
0.8125 0 0.875 
0.875 0 0.875 
0.9375 0 0.875 
1 0 0.875 
0 0.33 0.875 
0.0625 0.33 0.875 
0.125 0.33 0.875 
0.1875 0.33 0.875 
0.25 0.33 0.875 
0.3125 0.33 0.875 
0.375 0.33 0.875 
0.4375 0.33 0.875 
0.5 0.33 0.875 
0.5625 0.33 0.875 
0.625 0.33 0.875 
0.6875 0.33 0.875 
0.75 0.33 0.875 
0.8125 0.33 0.875 
0.875 0.33 0.875 
0.9375 0.33 0.875 
1 0.33 0.875 
0 0 0.9375 
0.0625 0 0.9375 
0.125 0 0.9375 
0.1875 0 0.9375 
0.25 0 0.9375 
0.3125 0 0.9375 
0.375 0 0.9375 
0.4375 0 0.9375 
0.5 0 0.9375 
0.5625 0 0.9375 
0.625 0 0.9375 
0.6875 0 0.9375 
0.75 0 0.9375 
0.8125 0 0.9375 
0.875 0 0.9375 
0.9375 0 0.9375 
1 0 0.9375 
0 0.33 0.9375 
0.0625 0.33 0.9375 
0.125 0.33 0.9375 
0.1875 0.33 0.9375 
0.25 0.33 0.9375 
0.3125 0.33 0.9375 
0.375 0.33 0.9375 
0.4375 0.33 0.9375 
0.5 0.33 0.9375 
0.5625 0.33 0.9375 
0.625 0.33 0.9375 
0.6875 0.33 0.9375 
0.75 0.33 0.9375 
0.8125 0.33 0.9375 
0.875 0.33 0.9375 
0.9375 0.33 0.9375 
1 0.33 0.9375 
0 0 1 
0.0625 0 1 
0.125 0 1 
0.1875 0 1 
0.25 0 1 
0.3125 0 1 
0.375 0 1 
0.4375 0 1 
0.5 0 1 
0.5625 0 1 
0.625 0 1 
0.6875 0 1 
0.75 0 1 
0.8125 0 1 
0.875 0 1 
0.9375 0 1 
1 0 1 
0 0.33 1 
0.0625 0.33 1 
0.125 0.33 1 
0.1875 0.33 1 
0.25 0.33 1 
0.3125 0.33 1 
0.375 0.33 1 
0.4375 0.33 1 
0.5 0.33 1 
0.5625 0.33 1 
0.625 0.33 1 
0.6875 0.33 1 
0.75 0.33 1 
0.8125 0.33 1 
0.875 0.33 1 
0.9375 0.33 1 
1 0.33 1 

CELLS 256 2304
8 0 1 18 17 34 35 52 51 
8 1 2 19 18 35 36 53 52 
8 2 3 20 19 36 37 54 53 
8 3 4 21 20 37 38 55 54 
8 4 5 22 21 38 39 56 55 
8 5 6 23 22 39 40 57 56 
8 6 7 24 23 40 41 58 57 
8 7 8 25 24 41 42 59 58 
8 8 9 26 25 42 43 60 59 
8 9 10 27 26 43 44 61 60 
8 10 11 28 27 44 45 62 61 
8 11 12 29 28 45 46 63 62 
8 12 13 30 29 46 47 64 63 
8 13 14 31 30 47 48 65 64 
8 14 15 32 31 48 49 66 65 
8 15 16 33 32 49 50 67 66 
8 34 35 52 51 68 69 86 85 
8 35 36 53 52 69 70 87 86 
8 36 37 54 53 70 71 88 87 
8 37 38 55 54 71 72 89 88 
8 38 39 56 55 72 73 90 89 
8 39 40 57 56 73 74 91 90 
8 40 41 58 57 74 75 92 91 
8 41 42 59 58 75 76 93 92 
8 42 43 60 59 76 77 94 93 
8 43 44 61 60 77 78 95 94 
8 44 45 62 61 78 79 96 95 
8 45 46 63 62 79 80 97 96 
8 46 47 64 63 80 81 98 97 
8 47 48 65 64 81 82 99 98 
8 48 49 66 65 82 83 100 99 
8 49 50 67 66 83 84 101 100 
8 68 69 86 85 102 103 120 119 
8 69 70 87 86 103 104 121 120 
8 70 71 88 87 104 105 122 121 
8 71 72 89 88 105 106 123 122 
8 72 73 90 89 106 107 124 123 
8 73 74 91 90 107 108 125 124 
8 74 75 92 91 108 109 126 125 
8 75 76 93 92 109 110 127 126 
8 76 77 94 93 110 111 128 127 
8 77 78 95 94 111 112 129 128 
8 78 79 96 95 112 113 130 129 
8 79 80 97 96 113 114 131 130 
8 80 81 98 97 114 115 132 131 
8 81 82 99 98 115 116 133 132 
8 82 83 100 99 116 117 134 133 
8 83 84 101 100 117 118 135 134 
8 102 103 120 119 136 137 154 153 
8 103 104 121 120 137 138 155 154 
8 104 105 122 121 138 139 156 155 
8 105 106 123 122 139 140 157 156 
8 106 107 124 123 140 141 158 157 
8 107 108 125 124 141 142 159 158 
8 108 109 126 125 142 143 160 159 
8 109 110 127 126 143 144 161 160 
8 110 111 128 127 144 145 162 161 
8 111 112 129 128 145 146 163 162 
8 112 113 130 129 146 147 164 163 
8 113 114 131 130 147 148 165 164 
8 114 115 132 131 148 149 166 165 
8 115 116 133 132 149 150 167 166 
8 116 117 134 133 150 151 168 167 
8 117 118 135 134 151 152 169 168 
8 136 137 154 153 170 171 188 187 
8 137 138 155 154 171 172 189 188 
8 138 139 156 155 172 173 190 189 
8 139 140 157 156 173 174 191 190 
8 140 141 158 157 174 175 192 191 
8 141 142 159 158 175 176 193 192 
8 142 143 160 159 176 177 194 193 
8 143 144 161 160 177 178 195 194 
8 144 145 162 161 178 179 196 195 
8 145 146 163 162 179 180 197 196 
8 146 147 164 163 180 181 198 197 
8 147 148 165 164 181 182 199 198 
8 148 149 166 165 182 183 200 199 
8 149 150 167 166 183 184 201 200 
8 150 151 168 167 184 185 202 201 
8 151 152 169 168 185 186 203 202 
8 170 171 188 187 204 205 222 221 
8 171 172 189 188 205 206 223 222 
8 172 173 190 189 206 207 224 223 
8 173 174 191 190 207 208 225 224 
8 174 175 192 191 208 209 226 225 
8 175 176 193 192 209 210 227 226 
8 176 177 194 193 210 211 228 227 
8 177 178 195 194 211 212 229 228 
8 178 179 196 195 212 213 230 229 
8 179 180 197 196 213 214 231 230 
8 180 181 198 197 214 215 232 231 
8 181 182 199 198 215 216 233 232 
8 182 183 200 199 216 217 234 233 
8 183 184 201 200 217 218 235 234 
8 184 185 202 201 218 219 236 235 
8 185 186 203 202 219 220 237 236 
8 204 205 222 221 238 239 256 255 
8 205 206 223 222 239 240 257 256 
8 206 207 224 223 240 241 258 257 
8 207 208 225 224 241 242 259 258 
8 208 209 226 225 242 243 260 259 
8 209 210 227 226 243 244 261 260 
8 210 211 228 227 244 245 262 261 
8 211 212 229 228 245 246 263 262 
8 212 213 230 229 246 247 264 263 
8 213 214 231 230 247 248 265 264 
8 214 215 232 231 248 249 266 265 
8 215 216 233 232 249 250 267 266 
8 216 217 234 233 250 251 268 267 
8 217 218 235 234 251 252 269 268 
8 218 219 236 235 252 253 270 269 
8 219 220 237 236 253 254 271 270 
8 238 239 256 255 272 273 290 289 
8 239 240 257 256 273 274 291 290 
8 240 241 258 257 274 275 292 291 
8 241 242 259 258 275 276 293 292 
8 242 243 260 259 276 277 294 293 
8 243 244 261 260 277 278 295 294 
8 244 245 262 261 278 279 296 295 
8 245 246 263 262 279 280 297 296 
8 246 247 264 263 280 281 298 297 
8 247 248 265 264 281 282 299 298 
8 248 249 266 265 282 283 300 299 
8 249 250 267 266 283 284 301 300 
8 250 251 268 267 284 285 302 301 
8 251 252 269 268 285 286 303 302 
8 252 253 270 269 286 287 304 303 
8 253 254 271 270 287 288 305 304 
8 272 273 290 289 306 307 324 323 
8 273 274 291 290 307 308 325 324 
8 274 275 292 291 308 309 326 325 
8 275 276 293 292 309 310 327 326 
8 276 277 294 293 310 311 328 327 
8 277 278 295 294 311 312 329 328 
8 278 279 296 295 312 313 330 329 
8 279 280 297 296 313 314 331 330 
8 280 281 298 297 314 315 332 331 
8 281 282 299 298 315 316 333 332 
8 282 283 300 299 316 317 334 333 
8 283 284 301 300 317 318 335 334 
8 284 285 302 301 318 319 336 335 
8 285 286 303 302 319 320 337 336 
8 286 287 304 303 320 321 338 337 
8 287 288 305 304 321 322 339 338 
8 306 307 324 323 340 341 358 357 
8 307 308 325 324 341 342 359 358 
8 308 309 326 325 342 343 360 359 
8 309 310 327 326 343 344 361 360 
8 310 311 328 327 344 345 362 361 
8 311 312 329 328 345 346 363 362 
8 312 313 330 329 346 347 364 363 
8 313 314 331 330 347 348 365 364 
8 314 315 332 331 348 349 366 365 
8 315 316 333 332 349 350 367 366 
8 316 317 334 333 350 351 368 367 
8 317 318 335 334 351 352 369 368 
8 318 319 336 335 352 353 370 369 
8 319 320 337 336 353 354 371 370 
8 320 321 338 337 354 355 372 371 
8 321 322 339 338 355 356 373 372 
8 340 341 358 357 374 375 392 391 
8 341 342 359 358 375 376 393 392 
8 342 343 360 359 376 377 394 393 
8 343 344 361 360 377 378 395 394 
8 344 345 362 361 378 379 396 395 
8 345 346 363 362 379 380 397 396 
8 346 347 364 363 380 381 398 397 
8 347 348 365 364 381 382 399 398 
8 348 349 366 365 382 383 400 399 
8 349 350 367 366 383 384 401 400 
8 350 351 368 367 384 385 402 401 
8 351 352 369 368 385 386 403 402 
8 352 353 370 369 386 387 404 403 
8 353 354 371 370 387 388 405 404 
8 354 355 372 371 388 389 406 405 
8 355 356 373 372 389 390 407 406 
8 374 375 392 391 408 409 426 425 
8 375 376 393 392 409 410 427 426 
8 376 377 394 393 410 411 428 427 
8 377 378 395 394 411 412 429 428 
8 378 379 396 395 412 413 430 429 
8 379 380 397 396 413 414 431 430 
8 380 381 398 397 414 415 432 431 
8 381 382 399 398 415 416 433 432 
8 382 383 400 399 416 417 434 433 
8 383 384 401 400 417 418 435 434 
8 384 385 402 401 418 419 436 435 
8 385 386 403 402 419 420 437 436 
8 386 387 404 403 420 421 438 437 
8 387 388 405 404 421 422 439 438 
8 388 389 406 405 422 423 440 439 
8 389 390 407 406 423 424 441 440 
8 408 409 426 425 442 443 460 459 
8 409 410 427 426 443 444 461 460 
8 410 411 428 427 444 445 462 461 
8 411 412 429 428 445 446 463 462 
8 412 413 430 429 446 447 464 463 
8 413 414 431 430 447 448 465 464 
8 414 415 432 431 448 449 466 465 
8 415 416 433 432 449 450 467 466 
8 416 417 434 433 450 451 468 467 
8 417 418 435 434 451 452 469 468 
8 418 419 436 435 452 453 470 469 
8 419 420 437 436 453 454 471 470 
8 420 421 438 437 454 455 472 471 
8 421 422 439 438 455 456 473 472 
8 422 423 440 439 456 457 474 473 
8 423 424 441 440 457 458 475 474 
8 442 443 460 459 476 477 494 493 
8 443 444 461 460 477 478 495 494 
8 444 445 462 461 478 479 496 495 
8 445 446 463 462 479 480 497 496 
8 446 447 464 463 480 481 498 497 
8 447 448 465 464 481 482 499 498 
8 448 449 466 465 482 483 500 499 
8 449 450 467 466 483 484 501 500 
8 450 451 468 467 484 485 502 501 
8 451 452 469 468 485 486 503 502 
8 452 453 470 469 486 487 504 503 
8 453 454 471 470 487 488 505 504 
8 454 455 472 471 488 489 506 505 
8 455 456 473 472 489 490 507 506 
8 456 457 474 473 490 491 508 507 
8 457 458 475 474 491 492 509 508 
8 476 477 494 493 510 511 528 527 
8 477 478 495 494 511 512 529 528 
8 478 479 496 495 512 513 530 529 
8 479 480 497 496 513 514 531 530 
8 480 481 498 497 514 515 532 531 
8 481 482 499 498 515 516 533 532 
8 482 483 500 499 516 517 534 533 
8 483 484 501 500 517 518 535 534 
8 484 485 502 501 518 519 536 535 
8 485 486 503 502 519 520 537 536 
8 486 487 504 503 520 521 538 537 
8 487 488 505 504 521 522 539 538 
8 488 489 506 505 522 523 540 539 
8 489 490 507 506 523 524 541 540 
8 490 491 508 507 524 525 542 541 
8 491 492 509 508 525 526 543 542 
8 510 511 528 527 544 545 562 561 
8 511 512 529 528 545 546 563 562 
8 512 513 530 529 546 547 564 563 
8 513 514 531 530 547 548 565 564 
8 514 515 532 531 548 549 566 565 
8 515 516 533 532 549 550 567 566 
8 516 517 534 533 550 551 568 567 
8 517 518 535 534 551 552 569 568 
8 518 519 536 535 552 553 570 569 
8 519 520 537 536 553 554 571 570 
8 520 521 538 537 554 555 572 571 
8 521 522 539 538 555 556 573 572 
8 522 523 540 539 556 557 574 573 
8 523 524 541 540 557 558 575 574 
8 524 525 542 541 558 559 576 575 
8 525 526 543 542 559 560 577 576 

CELL_TYPES 256
72
72
72
72
72
72
72
72
72
72
72
72
72
72
72
72
72
72
72
72
72
72
72
72
72
72
72
72
72
72
72
72
72
72
72
72
72
72
72
72
72
72
72
72
72
72
72
72
72
72
72
72
72
72
72
72
72
72
72
72
72
72
72
72
72
72
72
72
72
72
72
72
72
72
72
72
72
72
72
72
72
72
72
72
72
72
72
72
72
72
72
72
72
72
72
72
72
72
72
72
72
72
72
72
72
72
72
72
72
72
72
72
72
72
72
72
72
72
72
72
72
72
72
72
72
72
72
72
72
72
72
72
72
72
72
72
72
72
72
72
72
72
72
72
72
72
72
72
72
72
72
72
72
72
72
72
72
72
72
72
72
72
72
72
72
72
72
72
72
72
72
72
72
72
72
72
72
72
72
72
72
72
72
72
72
72
72
72
72
72
72
72
72
72
72
72
72
72
72
72
72
72
72
72
72
72
72
72
72
72
72
72
72
72
72
72
72
72
72
72
72
72
72
72
72
72
72
72
72
72
72
72
72
72
72
72
72
72
72
72
72
72
72
72
72
72
72
72
72
72
72
72
72
72
72
72

POINT_DATA 578
SCALARS point_var float 1
LOOKUP_TABLE default
0
1
2
3
4
5
6
7
8
9
10
11
12
13
14
15
16
17
18
19
20
21
22
23
24
25
26
27
28
29
30
31
32
33
34
35
36
37
38
39
40
41
42
43
44
45
46
47
48
49
50
51
52
53
54
55
56
57
58
59
60
61
62
63
64
65
66
67
68
69
70
71
72
73
74
75
76
77
78
79
80
81
82
83
84
85
86
87
88
89
90
91
92
93
94
95
96
97
98
99
100
101
102
103
104
105
106
107
108
109
110
111
112
113
114
115
116
117
118
119
120
121
122
123
124
125
126
127
128
129
130
131
132
133
134
135
136
137
138
139
140
141
142
143
144
145
146
147
148
149
150
151
152
153
154
155
156
157
158
159
160
161
162
163
164
165
166
167
168
169
170
171
172
173
174
175
176
177
178
179
180
181
182
183
184
185
186
187
188
189
190
191
192
193
194
195
196
197
198
199
200
201
202
203
204
205
206
207
208
209
210
211
212
213
214
215
216
217
218
219
220
221
222
223
224
225
226
227
228
229
230
231
232
233
234
235
236
237
238
239
240
241
242
243
244
245
246
247
248
249
250
251
252
253
254
255
256
257
258
259
260
261
262
263
264
265
266
267
268
269
270
271
272
273
274
275
276
277
278
279
280
281
282
283
284
285
286
287
288
289
290
291
292
293
294
295
296
297
298
299
300
301
302
303
304
305
306
307
308
309
310
311
312
313
314
315
316
317
318
319
320
321
322
323
324
325
326
327
328
329
330
331
332
333
334
335
336
337
338
339
340
341
342
343
344
345
346
347
348
349
350
351
352
353
354
355
356
357
358
359
360
361
362
363
364
365
366
367
368
369
370
371
372
373
374
375
376
377
378
379
380
381
382
383
384
385
386
387
388
389
390
391
392
393
394
395
396
397
398
399
400
401
402
403
404
405
406
407
408
409
410
411
412
413
414
415
416
417
418
419
420
421
422
423
424
425
426
427
428
429
430
431
432
433
434
435
436
437
438
439
440
441
442
443
444
445
446
447
448
449
450
451
452
453
454
455
456
457
458
459
460
461
462
463
464
465
466
467
468
469
470
471
472
473
474
475
476
477
478
479
480
481
482
483
484
485
486
487
488
489
490
491
492
493
494
495
496
497
498
499
500
501
502
503
504
505
506
507
508
509
510
511
512
513
514
515
516
517
518
519
520
521
522
523
524
525
526
527
528
529
530
531
532
533
534
535
536
537
538
539
540
541
542
543
544
545
546
547
548
549
550
551
552
553
554
555
556
557
558
559
560
561
562
563
564
565
566
567
568
569
570
571
572
573
574
575
576
577

VECTORS point_vec float
0 1 2
0 1 2
0 1 2
0 1 2
0 1 2
0 1 2
0 1 2
0 1 2
0 1 2
0 1 2
0 1 2
0 1 2
0 1 2
0 1 2
0 1 2
0 1 2
0 1 2
0 1 2
0 1 2
0 1 2
0 1 2
0 1 2
0 1 2
0 1 2
0 1 2
0 1 2
0 1 2
0 1 2
0 1 2
0 1 2
0 1 2
0 1 2
0 1 2
0 1 2
0 1 2
0 1 2
0 1 2
0 1 2
0 1 2
0 1 2
0 1 2
0 1 2
0 1 2
0 1 2
0 1 2
0 1 2
0 1 2
0 1 2
0 1 2
0 1 2
0 1 2
0 1 2
0 1 2
0 1 2
0 1 2
0 1 2
0 1 2
0 1 2
0 1 2
0 1 2
0 1 2
0 1 2
0 1 2
0 1 2
0 1 2
0 1 2
0 1 2
0 1 2
0 1 2
0 1 2
0 1 2
0 1 2
0 1 2
0 1 2
0 1 2
0 1 2
0 1 2
0 1 2
0 1 2
0 1 2
0 1 2
0 1 2
0 1 2
0 1 2
0 1 2
0 1 2
0 1 2
0 1 2
0 1 2
0 1 2
0 1 2
0 1 2
0 1 2
0 1 2
0 1 2
0 1 2
0 1 2
0 1 2
0 1 2
0 1 2
0 1 2
0 1 2
0 1 2
0 1 2
0 1 2
0 1 2
0 1 2
0 1 2
0 1 2
0 1 2
0 1 2
0 1 2
0 1 2
0 1 2
0 1 2
0 1 2
0 1 2
0 1 2
0 1 2
0 1 2
0 1 2
0 1 2
0 1 2
0 1 2
0 1 2
0 1 2
0 1 2
0 1 2
0 1 2
0 1 2
0 1 2
0 1 2
0 1 2
0 1 2
0 1 2
0 1 2
0 1 2
0 1 2
0 1 2
0 1 2
0 1 2
0 1 2
0 1 2
0 1 2
0 1 2
0 1 2
0 1 2
0 1 2
0 1 2
0 1 2
0 1 2
0 1 2
0 1 2
0 1 2
0 1 2
0 1 2
0 1 2
0 1 2
0 1 2
0 1 2
0 1 2
0 1 2
0 1 2
0 1 2
0 1 2
0 1 2
0 1 2
0 1 2
0 1 2
0 1 2
0 1 2
0 1 2
0 1 2
0 1 2
0 1 2
0 1 2
0 1 2
0 1 2
0 1 2
0 1 2
0 1 2
0 1 2
0 1 2
0 1 2
0 1 2
0 1 2
0 1 2
0 1 2
0 1 2
0 1 2
0 1 2
0 1 2
0 1 2
0 1 2
0 1 2
0 1 2
0 1 2
0 1 2
0 1 2
0 1 2
0 1 2
0 1 2
0 1 2
0 1 2
0 1 2
0 1 2
0 1 2
0 1 2
0 1 2
0 1 2
0 1 2
0 1 2
0 1 2
0 1 2
0 1 2
0 1 2
0 1 2
0 1 2
0 1 2
0 1 2
0 1 2
0 1 2
0 1 2
0 1 2
0 1 2
0 1 2
0 1 2
0 1 2
0 1 2
0 1 2
0 1 2
0 1 2
0 1 2
0 1 2
0 1 2
0 1 2
0 1 2
0 1 2
0 1 2
0 1 2
0 1 2
0 1 2
0 1 2
0 1 2
0 1 2
0 1 2
0 1 2
0 1 2
0 1 2
0 1 2
0 1 2
0 1 2
0 1 2
0 1 2
0 1 2
0 1 2
0 1 2
0 1 2
0 1 2
0 1 2
0 1 2
0 1 2
0 1 2
0 1 2
0 1 2
0 1 2
0 1 2
0 1 2
0 1 2
0 1 2
0 1 2
0 1 2
0 1 2
0 1 2
0 1 2
0 1 2
0 1 2
0 1 2
0 1 2
0 1 2
0 1 2
0 1 2
0 1 2
0 1 2
0 1 2
0 1 2
0 1 2
0 1 2
0 1 2
0 1 2
0 1 2
0 1 2
0 1 2
0 1 2
0 1 2
0 1 2
0 1 2
0 1 2
0 1 2
0 1 2
0 1 2
0 1 2
0 1 2
0 1 2
0 1 2
0 1 2
0 1 2
0 1 2
0 1 2
0 1 2
0 1 2
0 1 2
0 1 2
0 1 2
0 1 2
0 1 2
0 1 2
0 1 2
0 1 2
0 1 2
0 1 2
0 1 2
0 1 2
0 1 2
0 1 2
0 1 2
0 1 2
0 1 2
0 1 2
0 1 2
0 1 2
0 1 2
0 1 2
0 1 2
0 1 2
0 1 2
0 1 2
0 1 2
0 1 2
0 1 2
0 1 2
0 1 2
0 1 2
0 1 2
0 1 2
0 1 2
0 1 2
0 1 2
0 1 2
0 1 2
0 1 2
0 1 2
0 1 2
0 1 2
0 1 2
0 1 2
0 1 2
0 1 2
0 1 2
0 1 2
0 1 2
0 1 2
0 1 2
0 1 2
0 1 2
0 1 2
0 1 2
0 1 2
0 1 2
0 1 2
0 1 2
0 1 2
0 1 2
0 1 2
0 1 2
0 1 2
0 1 2
0 1 2
0 1 2
0 1 2
0 1 2
0 1 2
0 1 2
0 1 2
0 1 2
0 1 2
0 1 2
0 1 2
0 1 2
0 1 2
0 1 2
0 1 2
0 1 2
0 1 2
0 1 2
0 1 2
0 1 2
0 1 2
0 1 2
0 1 2
0 1 2
0 1 2
0 1 2
0 1 2
0 1 2
0 1 2
0 1 2
0 1 2
0 1 2
0 1 2
0 1 2
0 1 2
0 1 2
0 1 2
0 1 2
0 1 2
0 1 2
0 1 2
0 1 2
0 1 2
0 1 2
0 1 2
0 1 2
0 1 2
0 1 2
0 1 2
0 1 2
0 1 2
0 1 2
0 1 2
0 1 2
0 1 2
0 1 2
0 1 2
0 1 2
0 1 2
0 1 2
0 1 2
0 1 2
0 1 2
0 1 2
0 1 2
0 1 2
0 1 2
0 1 2
0 1 2
0 1 2
0 1 2
0 1 2
0 1 2
0 1 2
0 1 2
0 1 2
0 1 2
0 1 2
0 1 2
0 1 2
0 1 2
0 1 2
0 1 2
0 1 2
0 1 2
0 1 2
0 1 2
0 1 2
0 1 2
0 1 2
0 1 2
0 1 2
0 1 2
0 1 2
0 1 2
0 1 2
0 1 2
0 1 2
0 1 2
0 1 2
0 1 2
0 1 2
0 1 2
0 1 2
0 1 2
0 1 2
0 1 2
0 1 2
0 1 2
0 1 2
0 1 2
0 1 2
0 1 2
0 1 2
0 1 2
0 1 2
0 1 2
0 1 2
0 1 2
0 1 2
0 1 2
0 1 2
0 1 2
0 1 2
0 1 2
0 1 2
0 1 2
0 1 2
0 1 2
0 1 2
0 1 2
0 1 2
0 1 2
0 1 2
0 1 2
0 1 2
0 1 2
0 1 2
0 1 2
0 1 2
0 1 2
0 1 2
0 1 2
0 1 2
0 1 2
0 1 2
0 1 2
0 1 2
0 1 2
0 1 2
0 1 2
0 1 2
0 1 2
0 1 2
0 1 2
0 1 2
0 1 2
0 1 2
0 1 2
0 1 2
0 1 2
0 1 2
0 1 2
0 1 2
0 1 2
0 1 2
0 1 2
0 1 2
0 1 2
0 1 2
0 1 2
0 1 2
0 1 2
0 1 2
0 1 2
0 1 2
0 1 2
0 1 2
0 1 2
0 1 2
0 1 2
0 1 2
0 1 2
0 1 2
0 1 2
0 1 2
0 1 2
0 1 2
0 1 2
0 1 2
0 1 2
0 1 2
0 1 2
0 1 2
0 1 2
0 1 2
0 1 2
0 1 2
0 1 2
0 1 2
0 1 2

CELL_DATA 256
SCALARS elem_var float 1
LOOKUP_TABLE default 
0
1
2
3
4
5
6
7
8
9
10
11
12
13
14
15
16
17
18
19
20
21
22
23
24
25
26
27
28
29
30
31
32
33
34
35
36
37
38
39
40
41
42
43
44
45
46
47
48
49
50
51
52
53
54
55
56
57
58
59
60
61
62
63
64
65
66
67
68
69
70
71
72
73
74
75
76
77
78
79
80
81
82
83
84
85
86
87
88
89
90
91
92
93
94
95
96
97
98
99
100
101
102
103
104
105
106
107
108
109
110
111
112
113
114
115
116
117
118
119
120
121
122
123
124
125
126
127
128
129
130
131
132
133
134
135
136
137
138
139
140
141
142
143
144
145
146
147
148
149
150
151
152
153
154
155
156
157
158
159
160
161
162
163
164
165
166
167
168
169
170
171
172
173
174
175
176
177
178
179
180
181
182
183
184
185
186
187
188
189
190
191
192
193
194
195
196
197
198
199
200
201
202
203
204
205
206
207
208
209
210
211
212
213
214
215
216
217
218
219
220
221
222
223
224
225
226
227
228
229
230
231
232
233
234
235
236
237
238
239
240
241
242
243
244
245
246
247
248
249
250
251
252
253
254
255

SCALARS elem_var2 float 1
LOOKUP_TABLE default 
0
18446744073709551615
18446744073709551614
18446744073709551613
18446744073709551612
18446744073709551611
18446744073709551610
18446744073709551609
18446744073709551608
18446744073709551607
18446744073709551606
18446744073709551605
18446744073709551604
18446744073709551603
18446744073709551602
18446744073709551601
18446744073709551600
18446744073709551599
18446744073709551598
18446744073709551597
18446744073709551596
18446744073709551595
18446744073709551594
18446744073709551593
18446744073709551592
18446744073709551591
18446744073709551590
18446744073709551589
18446744073709551588
18446744073709551587
18446744073709551586
18446744073709551585
18446744073709551584
18446744073709551583
18446744073709551582
18446744073709551581
18446744073709551580
18446744073709551579
18446744073709551578
18446744073709551577
18446744073709551576
18446744073709551575
18446744073709551574
18446744073709551573
18446744073709551572
18446744073709551571
18446744073709551570
18446744073709551569
18446744073709551568
18446744073709551567
18446744073709551566
18446744073709551565
18446744073709551564
18446744073709551563
18446744073709551562
18446744073709551561
18446744073709551560
18446744073709551559
18446744073709551558
18446744073709551557
18446744073709551556
18446744073709551555
18446744073709551554
18446744073709551553
18446744073709551552
18446744073709551551
18446744073709551550
18446744073709551549
18446744073709551548
18446744073709551547
18446744073709551546
18446744073709551545
18446744073709551544
18446744073709551543
18446744073709551542
18446744073709551541
18446744073709551540
18446744073709551539
18446744073709551538
18446744073709551537
18446744073709551536
18446744073709551535
18446744073709551534
18446744073709551533
18446744073709551532
18446744073709551531
18446744073709551530
18446744073709551529
18446744073709551528
18446744073709551527
18446744073709551526
18446744073709551525
18446744073709551524
18446744073709551523
18446744073709551522
18446744073709551521
18446744073709551520
18446744073709551519
18446744073709551518
18446744073709551517
18446744073709551516
18446744073709551515
18446744073709551514
18446744073709551513
18446744073709551512
18446744073709551511
18446744073709551510
18446744073709551509
18446744073709551508
18446744073709551507
18446744073709551506
18446744073709551505
18446744073709551504
18446744073709551503
18446744073709551502
18446744073709551501
18446744073709551500
18446744073709551499
18446744073709551498
18446744073709551497
18446744073709551496
18446744073709551495
18446744073709551494
18446744073709551493
18446744073709551492
18446744073709551491
18446744073709551490
18446744073709551489
18446744073709551488
18446744073709551487
18446744073709551486
18446744073709551485
18446744073709551484
18446744073709551483
18446744073709551482
18446744073709551481
18446744073709551480
18446744073709551479
18446744073709551478
18446744073709551477
18446744073709551476
18446744073709551475
18446744073709551474
18446744073709551473
18446744073709551472
18446744073709551471
18446744073709551470
18446744073709551469
18446744073709551468
18446744073709551467
18446744073709551466
18446744073709551465
18446744073709551464
18446744073709551463
18446744073709551462
18446744073709551461
18446744073709551460
18446744073709551459
18446744073709551458
18446744073709551457
18446744073709551456
18446744073709551455
18446744073709551454
18446744073709551453
18446744073709551452
18446744073709551451
18446744073709551450
18446744073709551449
18446744073709551448
18446744073709551447
18446744073709551446
18446744073709551445
18446744073709551444
18446744073709551443
18446744073709551442
18446744073709551441
18446744073709551440
18446744073709551439
18446744073709551438
18446744073709551437
18446744073709551436
18446744073709551435
18446744073709551434
18446744073709551433
18446744073709551432
18446744073709551431
18446744073709551430
18446744073709551429
18446744073709551428
18446744073709551427
18446744073709551426
18446744073709551425
18446744073709551424
18446744073709551423
18446744073709551422
18446744073709551421
18446744073709551420
18446744073709551419
18446744073709551418
18446744073709551417
18446744073709551416
18446744073709551415
18446744073709551414
18446744073709551413
18446744073709551412
18446744073709551411
18446744073709551410
18446744073709551409
18446744073709551408
18446744073709551407
18446744073709551406