# vtk DataFile Version 2.0
Mesh for Fierro
ASCII
DATASET UNSTRUCTURED_GRID

POINTS 578 float
0 0 0 
0.0625 0 0 
0.125 0 0 
0.1875 0 0 
0.25 0 0 
0.3125 0 0 
0.375 0 0 
0.4375 0 0 
0.5 0 0 
0.5625 0 0 
0.625 0 0 
0.6875 0 0 
0.75 0 0 
0.8125 0 0 
0.875 0 0 
0.9375 0 0 
1 0 0 
0 0.0625 0 
0.0625 0.0625 0 
0.125 0.0625 0 
0.1875 0.0625 0 
0.25 0.0625 0 
0.3125 0.0625 0 
0.375 0.0625 0 
0.4375 0.0625 0 
0.5 0.0625 0 
0.5625 0.0625 0 
0.625 0.0625 0 
0.6875 0.0625 0 
0.75 0.0625 0 
0.8125 0.0625 0 
0.875 0.0625 0 
0.9375 0.0625 0 
1 0.0625 0 
0 0.125 0 
0.0625 0.125 0 
0.125 0.125 0 
0.1875 0.125 0 
0.25 0.125 0 
0.3125 0.125 0 
0.375 0.125 0 
0.4375 0.125 0 
0.5 0.125 0 
0.5625 0.125 0 
0.625 0.125 0 
0.6875 0.125 0 
0.75 0.125 0 
0.8125 0.125 0 
0.875 0.125 0 
0.9375 0.125 0 
1 0.125 0 
0 0.1875 0 
0.0625 0.1875 0 
0.125 0.1875 0 
0.1875 0.1875 0 
0.25 0.1875 0 
0.3125 0.1875 0 
0.375 0.1875 0 
0.4375 0.1875 0 
0.5 0.1875 0 
0.5625 0.1875 0 
0.625 0.1875 0 
0.6875 0.1875 0 
0.75 0.1875 0 
0.8125 0.1875 0 
0.875 0.1875 0 
0.9375 0.1875 0 
1 0.1875 0 
0 0.25 0 
0.0625 0.25 0 
0.125 0.25 0 
0.1875 0.25 0 
0.25 0.25 0 
0.3125 0.25 0 
0.375 0.25 0 
0.4375 0.25 0 
0.5 0.25 0 
0.5625 0.25 0 
0.625 0.25 0 
0.6875 0.25 0 
0.75 0.25 0 
0.8125 0.25 0 
0.875 0.25 0 
0.9375 0.25 0 
1 0.25 0 
0 0.3125 0 
0.0625 0.3125 0 
0.125 0.3125 0 
0.1875 0.3125 0 
0.25 0.3125 0 
0.3125 0.3125 0 
0.375 0.3125 0 
0.4375 0.3125 0 
0.5 0.3125 0 
0.5625 0.3125 0 
0.625 0.3125 0 
0.6875 0.3125 0 
0.75 0.3125 0 
0.8125 0.3125 0 
0.875 0.3125 0 
0.9375 0.3125 0 
1 0.3125 0 
0 0.375 0 
0.0625 0.375 0 
0.125 0.375 0 
0.1875 0.375 0 
0.25 0.375 0 
0.3125 0.375 0 
0.375 0.375 0 
0.4375 0.375 0 
0.5 0.375 0 
0.5625 0.375 0 
0.625 0.375 0 
0.6875 0.375 0 
0.75 0.375 0 
0.8125 0.375 0 
0.875 0.375 0 
0.9375 0.375 0 
1 0.375 0 
0 0.4375 0 
0.0625 0.4375 0 
0.125 0.4375 0 
0.1875 0.4375 0 
0.25 0.4375 0 
0.3125 0.4375 0 
0.375 0.4375 0 
0.4375 0.4375 0 
0.5 0.4375 0 
0.5625 0.4375 0 
0.625 0.4375 0 
0.6875 0.4375 0 
0.75 0.4375 0 
0.8125 0.4375 0 
0.875 0.4375 0 
0.9375 0.4375 0 
1 0.4375 0 
0 0.5 0 
0.0625 0.5 0 
0.125 0.5 0 
0.1875 0.5 0 
0.25 0.5 0 
0.3125 0.5 0 
0.375 0.5 0 
0.4375 0.5 0 
0.5 0.5 0 
0.5625 0.5 0 
0.625 0.5 0 
0.6875 0.5 0 
0.75 0.5 0 
0.8125 0.5 0 
0.875 0.5 0 
0.9375 0.5 0 
1 0.5 0 
0 0.5625 0 
0.0625 0.5625 0 
0.125 0.5625 0 
0.1875 0.5625 0 
0.25 0.5625 0 
0.3125 0.5625 0 
0.375 0.5625 0 
0.4375 0.5625 0 
0.5 0.5625 0 
0.5625 0.5625 0 
0.625 0.5625 0 
0.6875 0.5625 0 
0.75 0.5625 0 
0.8125 0.5625 0 
0.875 0.5625 0 
0.9375 0.5625 0 
1 0.5625 0 
0 0.625 0 
0.0625 0.625 0 
0.125 0.625 0 
0.1875 0.625 0 
0.25 0.625 0 
0.3125 0.625 0 
0.375 0.625 0 
0.4375 0.625 0 
0.5 0.625 0 
0.5625 0.625 0 
0.625 0.625 0 
0.6875 0.625 0 
0.75 0.625 0 
0.8125 0.625 0 
0.875 0.625 0 
0.9375 0.625 0 
1 0.625 0 
0 0.6875 0 
0.0625 0.6875 0 
0.125 0.6875 0 
0.1875 0.6875 0 
0.25 0.6875 0 
0.3125 0.6875 0 
0.375 0.6875 0 
0.4375 0.6875 0 
0.5 0.6875 0 
0.5625 0.6875 0 
0.625 0.6875 0 
0.6875 0.6875 0 
0.75 0.6875 0 
0.8125 0.6875 0 
0.875 0.6875 0 
0.9375 0.6875 0 
1 0.6875 0 
0 0.75 0 
0.0625 0.75 0 
0.125 0.75 0 
0.1875 0.75 0 
0.25 0.75 0 
0.3125 0.75 0 
0.375 0.75 0 
0.4375 0.75 0 
0.5 0.75 0 
0.5625 0.75 0 
0.625 0.75 0 
0.6875 0.75 0 
0.75 0.75 0 
0.8125 0.75 0 
0.875 0.75 0 
0.9375 0.75 0 
1 0.75 0 
0 0.8125 0 
0.0625 0.8125 0 
0.125 0.8125 0 
0.1875 0.8125 0 
0.25 0.8125 0 
0.3125 0.8125 0 
0.375 0.8125 0 
0.4375 0.8125 0 
0.5 0.8125 0 
0.5625 0.8125 0 
0.625 0.8125 0 
0.6875 0.8125 0 
0.75 0.8125 0 
0.8125 0.8125 0 
0.875 0.8125 0 
0.9375 0.8125 0 
1 0.8125 0 
0 0.875 0 
0.0625 0.875 0 
0.125 0.875 0 
0.1875 0.875 0 
0.25 0.875 0 
0.3125 0.875 0 
0.375 0.875 0 
0.4375 0.875 0 
0.5 0.875 0 
0.5625 0.875 0 
0.625 0.875 0 
0.6875 0.875 0 
0.75 0.875 0 
0.8125 0.875 0 
0.875 0.875 0 
0.9375 0.875 0 
1 0.875 0 
0 0.9375 0 
0.0625 0.9375 0 
0.125 0.9375 0 
0.1875 0.9375 0 
0.25 0.9375 0 
0.3125 0.9375 0 
0.375 0.9375 0 
0.4375 0.9375 0 
0.5 0.9375 0 
0.5625 0.9375 0 
0.625 0.9375 0 
0.6875 0.9375 0 
0.75 0.9375 0 
0.8125 0.9375 0 
0.875 0.9375 0 
0.9375 0.9375 0 
1 0.9375 0 
0 1 0 
0.0625 1 0 
0.125 1 0 
0.1875 1 0 
0.25 1 0 
0.3125 1 0 
0.375 1 0 
0.4375 1 0 
0.5 1 0 
0.5625 1 0 
0.625 1 0 
0.6875 1 0 
0.75 1 0 
0.8125 1 0 
0.875 1 0 
0.9375 1 0 
1 1 0 
0 0 0.33 
0.0625 0 0.33 
0.125 0 0.33 
0.1875 0 0.33 
0.25 0 0.33 
0.3125 0 0.33 
0.375 0 0.33 
0.4375 0 0.33 
0.5 0 0.33 
0.5625 0 0.33 
0.625 0 0.33 
0.6875 0 0.33 
0.75 0 0.33 
0.8125 0 0.33 
0.875 0 0.33 
0.9375 0 0.33 
1 0 0.33 
0 0.0625 0.33 
0.0625 0.0625 0.33 
0.125 0.0625 0.33 
0.1875 0.0625 0.33 
0.25 0.0625 0.33 
0.3125 0.0625 0.33 
0.375 0.0625 0.33 
0.4375 0.0625 0.33 
0.5 0.0625 0.33 
0.5625 0.0625 0.33 
0.625 0.0625 0.33 
0.6875 0.0625 0.33 
0.75 0.0625 0.33 
0.8125 0.0625 0.33 
0.875 0.0625 0.33 
0.9375 0.0625 0.33 
1 0.0625 0.33 
0 0.125 0.33 
0.0625 0.125 0.33 
0.125 0.125 0.33 
0.1875 0.125 0.33 
0.25 0.125 0.33 
0.3125 0.125 0.33 
0.375 0.125 0.33 
0.4375 0.125 0.33 
0.5 0.125 0.33 
0.5625 0.125 0.33 
0.625 0.125 0.33 
0.6875 0.125 0.33 
0.75 0.125 0.33 
0.8125 0.125 0.33 
0.875 0.125 0.33 
0.9375 0.125 0.33 
1 0.125 0.33 
0 0.1875 0.33 
0.0625 0.1875 0.33 
0.125 0.1875 0.33 
0.1875 0.1875 0.33 
0.25 0.1875 0.33 
0.3125 0.1875 0.33 
0.375 0.1875 0.33 
0.4375 0.1875 0.33 
0.5 0.1875 0.33 
0.5625 0.1875 0.33 
0.625 0.1875 0.33 
0.6875 0.1875 0.33 
0.75 0.1875 0.33 
0.8125 0.1875 0.33 
0.875 0.1875 0.33 
0.9375 0.1875 0.33 
1 0.1875 0.33 
0 0.25 0.33 
0.0625 0.25 0.33 
0.125 0.25 0.33 
0.1875 0.25 0.33 
0.25 0.25 0.33 
0.3125 0.25 0.33 
0.375 0.25 0.33 
0.4375 0.25 0.33 
0.5 0.25 0.33 
0.5625 0.25 0.33 
0.625 0.25 0.33 
0.6875 0.25 0.33 
0.75 0.25 0.33 
0.8125 0.25 0.33 
0.875 0.25 0.33 
0.9375 0.25 0.33 
1 0.25 0.33 
0 0.3125 0.33 
0.0625 0.3125 0.33 
0.125 0.3125 0.33 
0.1875 0.3125 0.33 
0.25 0.3125 0.33 
0.3125 0.3125 0.33 
0.375 0.3125 0.33 
0.4375 0.3125 0.33 
0.5 0.3125 0.33 
0.5625 0.3125 0.33 
0.625 0.3125 0.33 
0.6875 0.3125 0.33 
0.75 0.3125 0.33 
0.8125 0.3125 0.33 
0.875 0.3125 0.33 
0.9375 0.3125 0.33 
1 0.3125 0.33 
0 0.375 0.33 
0.0625 0.375 0.33 
0.125 0.375 0.33 
0.1875 0.375 0.33 
0.25 0.375 0.33 
0.3125 0.375 0.33 
0.375 0.375 0.33 
0.4375 0.375 0.33 
0.5 0.375 0.33 
0.5625 0.375 0.33 
0.625 0.375 0.33 
0.6875 0.375 0.33 
0.75 0.375 0.33 
0.8125 0.375 0.33 
0.875 0.375 0.33 
0.9375 0.375 0.33 
1 0.375 0.33 
0 0.4375 0.33 
0.0625 0.4375 0.33 
0.125 0.4375 0.33 
0.1875 0.4375 0.33 
0.25 0.4375 0.33 
0.3125 0.4375 0.33 
0.375 0.4375 0.33 
0.4375 0.4375 0.33 
0.5 0.4375 0.33 
0.5625 0.4375 0.33 
0.625 0.4375 0.33 
0.6875 0.4375 0.33 
0.75 0.4375 0.33 
0.8125 0.4375 0.33 
0.875 0.4375 0.33 
0.9375 0.4375 0.33 
1 0.4375 0.33 
0 0.5 0.33 
0.0625 0.5 0.33 
0.125 0.5 0.33 
0.1875 0.5 0.33 
0.25 0.5 0.33 
0.3125 0.5 0.33 
0.375 0.5 0.33 
0.4375 0.5 0.33 
0.5 0.5 0.33 
0.5625 0.5 0.33 
0.625 0.5 0.33 
0.6875 0.5 0.33 
0.75 0.5 0.33 
0.8125 0.5 0.33 
0.875 0.5 0.33 
0.9375 0.5 0.33 
1 0.5 0.33 
0 0.5625 0.33 
0.0625 0.5625 0.33 
0.125 0.5625 0.33 
0.1875 0.5625 0.33 
0.25 0.5625 0.33 
0.3125 0.5625 0.33 
0.375 0.5625 0.33 
0.4375 0.5625 0.33 
0.5 0.5625 0.33 
0.5625 0.5625 0.33 
0.625 0.5625 0.33 
0.6875 0.5625 0.33 
0.75 0.5625 0.33 
0.8125 0.5625 0.33 
0.875 0.5625 0.33 
0.9375 0.5625 0.33 
1 0.5625 0.33 
0 0.625 0.33 
0.0625 0.625 0.33 
0.125 0.625 0.33 
0.1875 0.625 0.33 
0.25 0.625 0.33 
0.3125 0.625 0.33 
0.375 0.625 0.33 
0.4375 0.625 0.33 
0.5 0.625 0.33 
0.5625 0.625 0.33 
0.625 0.625 0.33 
0.6875 0.625 0.33 
0.75 0.625 0.33 
0.8125 0.625 0.33 
0.875 0.625 0.33 
0.9375 0.625 0.33 
1 0.625 0.33 
0 0.6875 0.33 
0.0625 0.6875 0.33 
0.125 0.6875 0.33 
0.1875 0.6875 0.33 
0.25 0.6875 0.33 
0.3125 0.6875 0.33 
0.375 0.6875 0.33 
0.4375 0.6875 0.33 
0.5 0.6875 0.33 
0.5625 0.6875 0.33 
0.625 0.6875 0.33 
0.6875 0.6875 0.33 
0.75 0.6875 0.33 
0.8125 0.6875 0.33 
0.875 0.6875 0.33 
0.9375 0.6875 0.33 
1 0.6875 0.33 
0 0.75 0.33 
0.0625 0.75 0.33 
0.125 0.75 0.33 
0.1875 0.75 0.33 
0.25 0.75 0.33 
0.3125 0.75 0.33 
0.375 0.75 0.33 
0.4375 0.75 0.33 
0.5 0.75 0.33 
0.5625 0.75 0.33 
0.625 0.75 0.33 
0.6875 0.75 0.33 
0.75 0.75 0.33 
0.8125 0.75 0.33 
0.875 0.75 0.33 
0.9375 0.75 0.33 
1 0.75 0.33 
0 0.8125 0.33 
0.0625 0.8125 0.33 
0.125 0.8125 0.33 
0.1875 0.8125 0.33 
0.25 0.8125 0.33 
0.3125 0.8125 0.33 
0.375 0.8125 0.33 
0.4375 0.8125 0.33 
0.5 0.8125 0.33 
0.5625 0.8125 0.33 
0.625 0.8125 0.33 
0.6875 0.8125 0.33 
0.75 0.8125 0.33 
0.8125 0.8125 0.33 
0.875 0.8125 0.33 
0.9375 0.8125 0.33 
1 0.8125 0.33 
0 0.875 0.33 
0.0625 0.875 0.33 
0.125 0.875 0.33 
0.1875 0.875 0.33 
0.25 0.875 0.33 
0.3125 0.875 0.33 
0.375 0.875 0.33 
0.4375 0.875 0.33 
0.5 0.875 0.33 
0.5625 0.875 0.33 
0.625 0.875 0.33 
0.6875 0.875 0.33 
0.75 0.875 0.33 
0.8125 0.875 0.33 
0.875 0.875 0.33 
0.9375 0.875 0.33 
1 0.875 0.33 
0 0.9375 0.33 
0.0625 0.9375 0.33 
0.125 0.9375 0.33 
0.1875 0.9375 0.33 
0.25 0.9375 0.33 
0.3125 0.9375 0.33 
0.375 0.9375 0.33 
0.4375 0.9375 0.33 
0.5 0.9375 0.33 
0.5625 0.9375 0.33 
0.625 0.9375 0.33 
0.6875 0.9375 0.33 
0.75 0.9375 0.33 
0.8125 0.9375 0.33 
0.875 0.9375 0.33 
0.9375 0.9375 0.33 
1 0.9375 0.33 
0 1 0.33 
0.0625 1 0.33 
0.125 1 0.33 
0.1875 1 0.33 
0.25 1 0.33 
0.3125 1 0.33 
0.375 1 0.33 
0.4375 1 0.33 
0.5 1 0.33 
0.5625 1 0.33 
0.625 1 0.33 
0.6875 1 0.33 
0.75 1 0.33 
0.8125 1 0.33 
0.875 1 0.33 
0.9375 1 0.33 
1 1 0.33 

CELLS 256 2304
8 0 1 18 17 289 290 307 306 
8 1 2 19 18 290 291 308 307 
8 2 3 20 19 291 292 309 308 
8 3 4 21 20 292 293 310 309 
8 4 5 22 21 293 294 311 310 
8 5 6 23 22 294 295 312 311 
8 6 7 24 23 295 296 313 312 
8 7 8 25 24 296 297 314 313 
8 8 9 26 25 297 298 315 314 
8 9 10 27 26 298 299 316 315 
8 10 11 28 27 299 300 317 316 
8 11 12 29 28 300 301 318 317 
8 12 13 30 29 301 302 319 318 
8 13 14 31 30 302 303 320 319 
8 14 15 32 31 303 304 321 320 
8 15 16 33 32 304 305 322 321 
8 17 18 35 34 306 307 324 323 
8 18 19 36 35 307 308 325 324 
8 19 20 37 36 308 309 326 325 
8 20 21 38 37 309 310 327 326 
8 21 22 39 38 310 311 328 327 
8 22 23 40 39 311 312 329 328 
8 23 24 41 40 312 313 330 329 
8 24 25 42 41 313 314 331 330 
8 25 26 43 42 314 315 332 331 
8 26 27 44 43 315 316 333 332 
8 27 28 45 44 316 317 334 333 
8 28 29 46 45 317 318 335 334 
8 29 30 47 46 318 319 336 335 
8 30 31 48 47 319 320 337 336 
8 31 32 49 48 320 321 338 337 
8 32 33 50 49 321 322 339 338 
8 34 35 52 51 323 324 341 340 
8 35 36 53 52 324 325 342 341 
8 36 37 54 53 325 326 343 342 
8 37 38 55 54 326 327 344 343 
8 38 39 56 55 327 328 345 344 
8 39 40 57 56 328 329 346 345 
8 40 41 58 57 329 330 347 346 
8 41 42 59 58 330 331 348 347 
8 42 43 60 59 331 332 349 348 
8 43 44 61 60 332 333 350 349 
8 44 45 62 61 333 334 351 350 
8 45 46 63 62 334 335 352 351 
8 46 47 64 63 335 336 353 352 
8 47 48 65 64 336 337 354 353 
8 48 49 66 65 337 338 355 354 
8 49 50 67 66 338 339 356 355 
8 51 52 69 68 340 341 358 357 
8 52 53 70 69 341 342 359 358 
8 53 54 71 70 342 343 360 359 
8 54 55 72 71 343 344 361 360 
8 55 56 73 72 344 345 362 361 
8 56 57 74 73 345 346 363 362 
8 57 58 75 74 346 347 364 363 
8 58 59 76 75 347 348 365 364 
8 59 60 77 76 348 349 366 365 
8 60 61 78 77 349 350 367 366 
8 61 62 79 78 350 351 368 367 
8 62 63 80 79 351 352 369 368 
8 63 64 81 80 352 353 370 369 
8 64 65 82 81 353 354 371 370 
8 65 66 83 82 354 355 372 371 
8 66 67 84 83 355 356 373 372 
8 68 69 86 85 357 358 375 374 
8 69 70 87 86 358 359 376 375 
8 70 71 88 87 359 360 377 376 
8 71 72 89 88 360 361 378 377 
8 72 73 90 89 361 362 379 378 
8 73 74 91 90 362 363 380 379 
8 74 75 92 91 363 364 381 380 
8 75 76 93 92 364 365 382 381 
8 76 77 94 93 365 366 383 382 
8 77 78 95 94 366 367 384 383 
8 78 79 96 95 367 368 385 384 
8 79 80 97 96 368 369 386 385 
8 80 81 98 97 369 370 387 386 
8 81 82 99 98 370 371 388 387 
8 82 83 100 99 371 372 389 388 
8 83 84 101 100 372 373 390 389 
8 85 86 103 102 374 375 392 391 
8 86 87 104 103 375 376 393 392 
8 87 88 105 104 376 377 394 393 
8 88 89 106 105 377 378 395 394 
8 89 90 107 106 378 379 396 395 
8 90 91 108 107 379 380 397 396 
8 91 92 109 108 380 381 398 397 
8 92 93 110 109 381 382 399 398 
8 93 94 111 110 382 383 400 399 
8 94 95 112 111 383 384 401 400 
8 95 96 113 112 384 385 402 401 
8 96 97 114 113 385 386 403 402 
8 97 98 115 114 386 387 404 403 
8 98 99 116 115 387 388 405 404 
8 99 100 117 116 388 389 406 405 
8 100 101 118 117 389 390 407 406 
8 102 103 120 119 391 392 409 408 
8 103 104 121 120 392 393 410 409 
8 104 105 122 121 393 394 411 410 
8 105 106 123 122 394 395 412 411 
8 106 107 124 123 395 396 413 412 
8 107 108 125 124 396 397 414 413 
8 108 109 126 125 397 398 415 414 
8 109 110 127 126 398 399 416 415 
8 110 111 128 127 399 400 417 416 
8 111 112 129 128 400 401 418 417 
8 112 113 130 129 401 402 419 418 
8 113 114 131 130 402 403 420 419 
8 114 115 132 131 403 404 421 420 
8 115 116 133 132 404 405 422 421 
8 116 117 134 133 405 406 423 422 
8 117 118 135 134 406 407 424 423 
8 119 120 137 136 408 409 426 425 
8 120 121 138 137 409 410 427 426 
8 121 122 139 138 410 411 428 427 
8 122 123 140 139 411 412 429 428 
8 123 124 141 140 412 413 430 429 
8 124 125 142 141 413 414 431 430 
8 125 126 143 142 414 415 432 431 
8 126 127 144 143 415 416 433 432 
8 127 128 145 144 416 417 434 433 
8 128 129 146 145 417 418 435 434 
8 129 130 147 146 418 419 436 435 
8 130 131 148 147 419 420 437 436 
8 131 132 149 148 420 421 438 437 
8 132 133 150 149 421 422 439 438 
8 133 134 151 150 422 423 440 439 
8 134 135 152 151 423 424 441 440 
8 136 137 154 153 425 426 443 442 
8 137 138 155 154 426 427 444 443 
8 138 139 156 155 427 428 445 444 
8 139 140 157 156 428 429 446 445 
8 140 141 158 157 429 430 447 446 
8 141 142 159 158 430 431 448 447 
8 142 143 160 159 431 432 449 448 
8 143 144 161 160 432 433 450 449 
8 144 145 162 161 433 434 451 450 
8 145 146 163 162 434 435 452 451 
8 146 147 164 163 435 436 453 452 
8 147 148 165 164 436 437 454 453 
8 148 149 166 165 437 438 455 454 
8 149 150 167 166 438 439 456 455 
8 150 151 168 167 439 440 457 456 
8 151 152 169 168 440 441 458 457 
8 153 154 171 170 442 443 460 459 
8 154 155 172 171 443 444 461 460 
8 155 156 173 172 444 445 462 461 
8 156 157 174 173 445 446 463 462 
8 157 158 175 174 446 447 464 463 
8 158 159 176 175 447 448 465 464 
8 159 160 177 176 448 449 466 465 
8 160 161 178 177 449 450 467 466 
8 161 162 179 178 450 451 468 467 
8 162 163 180 179 451 452 469 468 
8 163 164 181 180 452 453 470 469 
8 164 165 182 181 453 454 471 470 
8 165 166 183 182 454 455 472 471 
8 166 167 184 183 455 456 473 472 
8 167 168 185 184 456 457 474 473 
8 168 169 186 185 457 458 475 474 
8 170 171 188 187 459 460 477 476 
8 171 172 189 188 460 461 478 477 
8 172 173 190 189 461 462 479 478 
8 173 174 191 190 462 463 480 479 
8 174 175 192 191 463 464 481 480 
8 175 176 193 192 464 465 482 481 
8 176 177 194 193 465 466 483 482 
8 177 178 195 194 466 467 484 483 
8 178 179 196 195 467 468 485 484 
8 179 180 197 196 468 469 486 485 
8 180 181 198 197 469 470 487 486 
8 181 182 199 198 470 471 488 487 
8 182 183 200 199 471 472 489 488 
8 183 184 201 200 472 473 490 489 
8 184 185 202 201 473 474 491 490 
8 185 186 203 202 474 475 492 491 
8 187 188 205 204 476 477 494 493 
8 188 189 206 205 477 478 495 494 
8 189 190 207 206 478 479 496 495 
8 190 191 208 207 479 480 497 496 
8 191 192 209 208 480 481 498 497 
8 192 193 210 209 481 482 499 498 
8 193 194 211 210 482 483 500 499 
8 194 195 212 211 483 484 501 500 
8 195 196 213 212 484 485 502 501 
8 196 197 214 213 485 486 503 502 
8 197 198 215 214 486 487 504 503 
8 198 199 216 215 487 488 505 504 
8 199 200 217 216 488 489 506 505 
8 200 201 218 217 489 490 507 506 
8 201 202 219 218 490 491 508 507 
8 202 203 220 219 491 492 509 508 
8 204 205 222 221 493 494 511 510 
8 205 206 223 222 494 495 512 511 
8 206 207 224 223 495 496 513 512 
8 207 208 225 224 496 497 514 513 
8 208 209 226 225 497 498 515 514 
8 209 210 227 226 498 499 516 515 
8 210 211 228 227 499 500 517 516 
8 211 212 229 228 500 501 518 517 
8 212 213 230 229 501 502 519 518 
8 213 214 231 230 502 503 520 519 
8 214 215 232 231 503 504 521 520 
8 215 216 233 232 504 505 522 521 
8 216 217 234 233 505 506 523 522 
8 217 218 235 234 506 507 524 523 
8 218 219 236 235 507 508 525 524 
8 219 220 237 236 508 509 526 525 
8 221 222 239 238 510 511 528 527 
8 222 223 240 239 511 512 529 528 
8 223 224 241 240 512 513 530 529 
8 224 225 242 241 513 514 531 530 
8 225 226 243 242 514 515 532 531 
8 226 227 244 243 515 516 533 532 
8 227 228 245 244 516 517 534 533 
8 228 229 246 245 517 518 535 534 
8 229 230 247 246 518 519 536 535 
8 230 231 248 247 519 520 537 536 
8 231 232 249 248 520 521 538 537 
8 232 233 250 249 521 522 539 538 
8 233 234 251 250 522 523 540 539 
8 234 235 252 251 523 524 541 540 
8 235 236 253 252 524 525 542 541 
8 236 237 254 253 525 526 543 542 
8 238 239 256 255 527 528 545 544 
8 239 240 257 256 528 529 546 545 
8 240 241 258 257 529 530 547 546 
8 241 242 259 258 530 531 548 547 
8 242 243 260 259 531 532 549 548 
8 243 244 261 260 532 533 550 549 
8 244 245 262 261 533 534 551 550 
8 245 246 263 262 534 535 552 551 
8 246 247 264 263 535 536 553 552 
8 247 248 265 264 536 537 554 553 
8 248 249 266 265 537 538 555 554 
8 249 250 267 266 538 539 556 555 
8 250 251 268 267 539 540 557 556 
8 251 252 269 268 540 541 558 557 
8 252 253 270 269 541 542 559 558 
8 253 254 271 270 542 543 560 559 
8 255 256 273 272 544 545 562 561 
8 256 257 274 273 545 546 563 562 
8 257 258 275 274 546 547 564 563 
8 258 259 276 275 547 548 565 564 
8 259 260 277 276 548 549 566 565 
8 260 261 278 277 549 550 567 566 
8 261 262 279 278 550 551 568 567 
8 262 263 280 279 551 552 569 568 
8 263 264 281 280 552 553 570 569 
8 264 265 282 281 553 554 571 570 
8 265 266 283 282 554 555 572 571 
8 266 267 284 283 555 556 573 572 
8 267 268 285 284 556 557 574 573 
8 268 269 286 285 557 558 575 574 
8 269 270 287 286 558 559 576 575 
8 270 271 288 287 559 560 577 576 

CELL_TYPES 256
72
72
72
72
72
72
72
72
72
72
72
72
72
72
72
72
72
72
72
72
72
72
72
72
72
72
72
72
72
72
72
72
72
72
72
72
72
72
72
72
72
72
72
72
72
72
72
72
72
72
72
72
72
72
72
72
72
72
72
72
72
72
72
72
72
72
72
72
72
72
72
72
72
72
72
72
72
72
72
72
72
72
72
72
72
72
72
72
72
72
72
72
72
72
72
72
72
72
72
72
72
72
72
72
72
72
72
72
72
72
72
72
72
72
72
72
72
72
72
72
72
72
72
72
72
72
72
72
72
72
72
72
72
72
72
72
72
72
72
72
72
72
72
72
72
72
72
72
72
72
72
72
72
72
72
72
72
72
72
72
72
72
72
72
72
72
72
72
72
72
72
72
72
72
72
72
72
72
72
72
72
72
72
72
72
72
72
72
72
72
72
72
72
72
72
72
72
72
72
72
72
72
72
72
72
72
72
72
72
72
72
72
72
72
72
72
72
72
72
72
72
72
72
72
72
72
72
72
72
72
72
72
72
72
72
72
72
72
72
72
72
72
72
72
72
72
72
72
72
72
72
72
72
72
72
72

POINT_DATA 578
SCALARS point_var float 1
LOOKUP_TABLE default
0
1
2
3
4
5
6
7
8
9
10
11
12
13
14
15
16
17
18
19
20
21
22
23
24
25
26
27
28
29
30
31
32
33
34
35
36
37
38
39
40
41
42
43
44
45
46
47
48
49
50
51
52
53
54
55
56
57
58
59
60
61
62
63
64
65
66
67
68
69
70
71
72
73
74
75
76
77
78
79
80
81
82
83
84
85
86
87
88
89
90
91
92
93
94
95
96
97
98
99
100
101
102
103
104
105
106
107
108
109
110
111
112
113
114
115
116
117
118
119
120
121
122
123
124
125
126
127
128
129
130
131
132
133
134
135
136
137
138
139
140
141
142
143
144
145
146
147
148
149
150
151
152
153
154
155
156
157
158
159
160
161
162
163
164
165
166
167
168
169
170
171
172
173
174
175
176
177
178
179
180
181
182
183
184
185
186
187
188
189
190
191
192
193
194
195
196
197
198
199
200
201
202
203
204
205
206
207
208
209
210
211
212
213
214
215
216
217
218
219
220
221
222
223
224
225
226
227
228
229
230
231
232
233
234
235
236
237
238
239
240
241
242
243
244
245
246
247
248
249
250
251
252
253
254
255
256
257
258
259
260
261
262
263
264
265
266
267
268
269
270
271
272
273
274
275
276
277
278
279
280
281
282
283
284
285
286
287
288
289
290
291
292
293
294
295
296
297
298
299
300
301
302
303
304
305
306
307
308
309
310
311
312
313
314
315
316
317
318
319
320
321
322
323
324
325
326
327
328
329
330
331
332
333
334
335
336
337
338
339
340
341
342
343
344
345
346
347
348
349
350
351
352
353
354
355
356
357
358
359
360
361
362
363
364
365
366
367
368
369
370
371
372
373
374
375
376
377
378
379
380
381
382
383
384
385
386
387
388
389
390
391
392
393
394
395
396
397
398
399
400
401
402
403
404
405
406
407
408
409
410
411
412
413
414
415
416
417
418
419
420
421
422
423
424
425
426
427
428
429
430
431
432
433
434
435
436
437
438
439
440
441
442
443
444
445
446
447
448
449
450
451
452
453
454
455
456
457
458
459
460
461
462
463
464
465
466
467
468
469
470
471
472
473
474
475
476
477
478
479
480
481
482
483
484
485
486
487
488
489
490
491
492
493
494
495
496
497
498
499
500
501
502
503
504
505
506
507
508
509
510
511
512
513
514
515
516
517
518
519
520
521
522
523
524
525
526
527
528
529
530
531
532
533
534
535
536
537
538
539
540
541
542
543
544
545
546
547
548
549
550
551
552
553
554
555
556
557
558
559
560
561
562
563
564
565
566
567
568
569
570
571
572
573
574
575
576
577

VECTORS point_vec float
0 1 2
0 1 2
0 1 2
0 1 2
0 1 2
0 1 2
0 1 2
0 1 2
0 1 2
0 1 2
0 1 2
0 1 2
0 1 2
0 1 2
0 1 2
0 1 2
0 1 2
0 1 2
0 1 2
0 1 2
0 1 2
0 1 2
0 1 2
0 1 2
0 1 2
0 1 2
0 1 2
0 1 2
0 1 2
0 1 2
0 1 2
0 1 2
0 1 2
0 1 2
0 1 2
0 1 2
0 1 2
0 1 2
0 1 2
0 1 2
0 1 2
0 1 2
0 1 2
0 1 2
0 1 2
0 1 2
0 1 2
0 1 2
0 1 2
0 1 2
0 1 2
0 1 2
0 1 2
0 1 2
0 1 2
0 1 2
0 1 2
0 1 2
0 1 2
0 1 2
0 1 2
0 1 2
0 1 2
0 1 2
0 1 2
0 1 2
0 1 2
0 1 2
0 1 2
0 1 2
0 1 2
0 1 2
0 1 2
0 1 2
0 1 2
0 1 2
0 1 2
0 1 2
0 1 2
0 1 2
0 1 2
0 1 2
0 1 2
0 1 2
0 1 2
0 1 2
0 1 2
0 1 2
0 1 2
0 1 2
0 1 2
0 1 2
0 1 2
0 1 2
0 1 2
0 1 2
0 1 2
0 1 2
0 1 2
0 1 2
0 1 2
0 1 2
0 1 2
0 1 2
0 1 2
0 1 2
0 1 2
0 1 2
0 1 2
0 1 2
0 1 2
0 1 2
0 1 2
0 1 2
0 1 2
0 1 2
0 1 2
0 1 2
0 1 2
0 1 2
0 1 2
0 1 2
0 1 2
0 1 2
0 1 2
0 1 2
0 1 2
0 1 2
0 1 2
0 1 2
0 1 2
0 1 2
0 1 2
0 1 2
0 1 2
0 1 2
0 1 2
0 1 2
0 1 2
0 1 2
0 1 2
0 1 2
0 1 2
0 1 2
0 1 2
0 1 2
0 1 2
0 1 2
0 1 2
0 1 2
0 1 2
0 1 2
0 1 2
0 1 2
0 1 2
0 1 2
0 1 2
0 1 2
0 1 2
0 1 2
0 1 2
0 1 2
0 1 2
0 1 2
0 1 2
0 1 2
0 1 2
0 1 2
0 1 2
0 1 2
0 1 2
0 1 2
0 1 2
0 1 2
0 1 2
0 1 2
0 1 2
0 1 2
0 1 2
0 1 2
0 1 2
0 1 2
0 1 2
0 1 2
0 1 2
0 1 2
0 1 2
0 1 2
0 1 2
0 1 2
0 1 2
0 1 2
0 1 2
0 1 2
0 1 2
0 1 2
0 1 2
0 1 2
0 1 2
0 1 2
0 1 2
0 1 2
0 1 2
0 1 2
0 1 2
0 1 2
0 1 2
0 1 2
0 1 2
0 1 2
0 1 2
0 1 2
0 1 2
0 1 2
0 1 2
0 1 2
0 1 2
0 1 2
0 1 2
0 1 2
0 1 2
0 1 2
0 1 2
0 1 2
0 1 2
0 1 2
0 1 2
0 1 2
0 1 2
0 1 2
0 1 2
0 1 2
0 1 2
0 1 2
0 1 2
0 1 2
0 1 2
0 1 2
0 1 2
0 1 2
0 1 2
0 1 2
0 1 2
0 1 2
0 1 2
0 1 2
0 1 2
0 1 2
0 1 2
0 1 2
0 1 2
0 1 2
0 1 2
0 1 2
0 1 2
0 1 2
0 1 2
0 1 2
0 1 2
0 1 2
0 1 2
0 1 2
0 1 2
0 1 2
0 1 2
0 1 2
0 1 2
0 1 2
0 1 2
0 1 2
0 1 2
0 1 2
0 1 2
0 1 2
0 1 2
0 1 2
0 1 2
0 1 2
0 1 2
0 1 2
0 1 2
0 1 2
0 1 2
0 1 2
0 1 2
0 1 2
0 1 2
0 1 2
0 1 2
0 1 2
0 1 2
0 1 2
0 1 2
0 1 2
0 1 2
0 1 2
0 1 2
0 1 2
0 1 2
0 1 2
0 1 2
0 1 2
0 1 2
0 1 2
0 1 2
0 1 2
0 1 2
0 1 2
0 1 2
0 1 2
0 1 2
0 1 2
0 1 2
0 1 2
0 1 2
0 1 2
0 1 2
0 1 2
0 1 2
0 1 2
0 1 2
0 1 2
0 1 2
0 1 2
0 1 2
0 1 2
0 1 2
0 1 2
0 1 2
0 1 2
0 1 2
0 1 2
0 1 2
0 1 2
0 1 2
0 1 2
0 1 2
0 1 2
0 1 2
0 1 2
0 1 2
0 1 2
0 1 2
0 1 2
0 1 2
0 1 2
0 1 2
0 1 2
0 1 2
0 1 2
0 1 2
0 1 2
0 1 2
0 1 2
0 1 2
0 1 2
0 1 2
0 1 2
0 1 2
0 1 2
0 1 2
0 1 2
0 1 2
0 1 2
0 1 2
0 1 2
0 1 2
0 1 2
0 1 2
0 1 2
0 1 2
0 1 2
0 1 2
0 1 2
0 1 2
0 1 2
0 1 2
0 1 2
0 1 2
0 1 2
0 1 2
0 1 2
0 1 2
0 1 2
0 1 2
0 1 2
0 1 2
0 1 2
0 1 2
0 1 2
0 1 2
0 1 2
0 1 2
0 1 2
0 1 2
0 1 2
0 1 2
0 1 2
0 1 2
0 1 2
0 1 2
0 1 2
0 1 2
0 1 2
0 1 2
0 1 2
0 1 2
0 1 2
0 1 2
0 1 2
0 1 2
0 1 2
0 1 2
0 1 2
0 1 2
0 1 2
0 1 2
0 1 2
0 1 2
0 1 2
0 1 2
0 1 2
0 1 2
0 1 2
0 1 2
0 1 2
0 1 2
0 1 2
0 1 2
0 1 2
0 1 2
0 1 2
0 1 2
0 1 2
0 1 2
0 1 2
0 1 2
0 1 2
0 1 2
0 1 2
0 1 2
0 1 2
0 1 2
0 1 2
0 1 2
0 1 2
0 1 2
0 1 2
0 1 2
0 1 2
0 1 2
0 1 2
0 1 2
0 1 2
0 1 2
0 1 2
0 1 2
0 1 2
0 1 2
0 1 2
0 1 2
0 1 2
0 1 2
0 1 2
0 1 2
0 1 2
0 1 2
0 1 2
0 1 2
0 1 2
0 1 2
0 1 2
0 1 2
0 1 2
0 1 2
0 1 2
0 1 2
0 1 2
0 1 2
0 1 2
0 1 2
0 1 2
0 1 2
0 1 2
0 1 2
0 1 2
0 1 2
0 1 2
0 1 2
0 1 2
0 1 2
0 1 2
0 1 2
0 1 2
0 1 2
0 1 2
0 1 2
0 1 2
0 1 2
0 1 2
0 1 2
0 1 2
0 1 2
0 1 2
0 1 2
0 1 2
0 1 2
0 1 2
0 1 2
0 1 2
0 1 2
0 1 2
0 1 2
0 1 2
0 1 2
0 1 2
0 1 2
0 1 2
0 1 2
0 1 2
0 1 2
0 1 2
0 1 2
0 1 2
0 1 2
0 1 2
0 1 2
0 1 2
0 1 2
0 1 2
0 1 2
0 1 2
0 1 2
0 1 2
0 1 2
0 1 2
0 1 2
0 1 2
0 1 2
0 1 2
0 1 2
0 1 2
0 1 2
0 1 2
0 1 2
0 1 2
0 1 2
0 1 2
0 1 2
0 1 2
0 1 2
0 1 2
0 1 2
0 1 2
0 1 2
0 1 2
0 1 2
0 1 2
0 1 2
0 1 2
0 1 2
0 1 2
0 1 2
0 1 2
0 1 2
0 1 2
0 1 2
0 1 2
0 1 2
0 1 2
0 1 2
0 1 2
0 1 2
0 1 2
0 1 2
0 1 2
0 1 2
0 1 2

CELL_DATA 256
SCALARS elem_var float 1
LOOKUP_TABLE default 
0
1
2
3
4
5
6
7
8
9
10
11
12
13
14
15
16
17
18
19
20
21
22
23
24
25
26
27
28
29
30
31
32
33
34
35
36
37
38
39
40
41
42
43
44
45
46
47
48
49
50
51
52
53
54
55
56
57
58
59
60
61
62
63
64
65
66
67
68
69
70
71
72
73
74
75
76
77
78
79
80
81
82
83
84
85
86
87
88
89
90
91
92
93
94
95
96
97
98
99
100
101
102
103
104
105
106
107
108
109
110
111
112
113
114
115
116
117
118
119
120
121
122
123
124
125
126
127
128
129
130
131
132
133
134
135
136
137
138
139
140
141
142
143
144
145
146
147
148
149
150
151
152
153
154
155
156
157
158
159
160
161
162
163
164
165
166
167
168
169
170
171
172
173
174
175
176
177
178
179
180
181
182
183
184
185
186
187
188
189
190
191
192
193
194
195
196
197
198
199
200
201
202
203
204
205
206
207
208
209
210
211
212
213
214
215
216
217
218
219
220
221
222
223
224
225
226
227
228
229
230
231
232
233
234
235
236
237
238
239
240
241
242
243
244
245
246
247
248
249
250
251
252
253
254
255

SCALARS elem_var2 float 1
LOOKUP_TABLE default 
0
18446744073709551615
18446744073709551614
18446744073709551613
18446744073709551612
18446744073709551611
18446744073709551610
18446744073709551609
18446744073709551608
18446744073709551607
18446744073709551606
18446744073709551605
18446744073709551604
18446744073709551603
18446744073709551602
18446744073709551601
18446744073709551600
18446744073709551599
18446744073709551598
18446744073709551597
18446744073709551596
18446744073709551595
18446744073709551594
18446744073709551593
18446744073709551592
18446744073709551591
18446744073709551590
18446744073709551589
18446744073709551588
18446744073709551587
18446744073709551586
18446744073709551585
18446744073709551584
18446744073709551583
18446744073709551582
18446744073709551581
18446744073709551580
18446744073709551579
18446744073709551578
18446744073709551577
18446744073709551576
18446744073709551575
18446744073709551574
18446744073709551573
18446744073709551572
18446744073709551571
18446744073709551570
18446744073709551569
18446744073709551568
18446744073709551567
18446744073709551566
18446744073709551565
18446744073709551564
18446744073709551563
18446744073709551562
18446744073709551561
18446744073709551560
18446744073709551559
18446744073709551558
18446744073709551557
18446744073709551556
18446744073709551555
18446744073709551554
18446744073709551553
18446744073709551552
18446744073709551551
18446744073709551550
18446744073709551549
18446744073709551548
18446744073709551547
18446744073709551546
18446744073709551545
18446744073709551544
18446744073709551543
18446744073709551542
18446744073709551541
18446744073709551540
18446744073709551539
18446744073709551538
18446744073709551537
18446744073709551536
18446744073709551535
18446744073709551534
18446744073709551533
18446744073709551532
18446744073709551531
18446744073709551530
18446744073709551529
18446744073709551528
18446744073709551527
18446744073709551526
18446744073709551525
18446744073709551524
18446744073709551523
18446744073709551522
18446744073709551521
18446744073709551520
18446744073709551519
18446744073709551518
18446744073709551517
18446744073709551516
18446744073709551515
18446744073709551514
18446744073709551513
18446744073709551512
18446744073709551511
18446744073709551510
18446744073709551509
18446744073709551508
18446744073709551507
18446744073709551506
18446744073709551505
18446744073709551504
18446744073709551503
18446744073709551502
18446744073709551501
18446744073709551500
18446744073709551499
18446744073709551498
18446744073709551497
18446744073709551496
18446744073709551495
18446744073709551494
18446744073709551493
18446744073709551492
18446744073709551491
18446744073709551490
18446744073709551489
18446744073709551488
18446744073709551487
18446744073709551486
18446744073709551485
18446744073709551484
18446744073709551483
18446744073709551482
18446744073709551481
18446744073709551480
18446744073709551479
18446744073709551478
18446744073709551477
18446744073709551476
18446744073709551475
18446744073709551474
18446744073709551473
18446744073709551472
18446744073709551471
18446744073709551470
18446744073709551469
18446744073709551468
18446744073709551467
18446744073709551466
18446744073709551465
18446744073709551464
18446744073709551463
18446744073709551462
18446744073709551461
18446744073709551460
18446744073709551459
18446744073709551458
18446744073709551457
18446744073709551456
18446744073709551455
18446744073709551454
18446744073709551453
18446744073709551452
18446744073709551451
18446744073709551450
18446744073709551449
18446744073709551448
18446744073709551447
18446744073709551446
18446744073709551445
18446744073709551444
18446744073709551443
18446744073709551442
18446744073709551441
18446744073709551440
18446744073709551439
18446744073709551438
18446744073709551437
18446744073709551436
18446744073709551435
18446744073709551434
18446744073709551433
18446744073709551432
18446744073709551431
18446744073709551430
18446744073709551429
18446744073709551428
18446744073709551427
18446744073709551426
18446744073709551425
18446744073709551424
18446744073709551423
18446744073709551422
18446744073709551421
18446744073709551420
18446744073709551419
18446744073709551418
18446744073709551417
18446744073709551416
18446744073709551415
18446744073709551414
18446744073709551413
18446744073709551412
18446744073709551411
18446744073709551410
18446744073709551409
18446744073709551408
18446744073709551407
18446744073709551406
18446744073709551405
18446744073709551404