# vtk DataFile Version 2.0
Mesh for Fierro
ASCII
DATASET UNSTRUCTURED_GRID

POINTS 243 float
0 0 0 
0.125 0 0 
0.25 0 0 
0.375 0 0 
0.5 0 0 
0.625 0 0 
0.75 0 0 
0.875 0 0 
1 0 0 
0 0.125 0 
0.125 0.125 0 
0.25 0.125 0 
0.375 0.125 0 
0.5 0.125 0 
0.625 0.125 0 
0.75 0.125 0 
0.875 0.125 0 
1 0.125 0 
0 0.25 0 
0.125 0.25 0 
0.25 0.25 0 
0.375 0.25 0 
0.5 0.25 0 
0.625 0.25 0 
0.75 0.25 0 
0.875 0.25 0 
1 0.25 0 
0 0.375 0 
0.125 0.375 0 
0.25 0.375 0 
0.375 0.375 0 
0.5 0.375 0 
0.625 0.375 0 
0.75 0.375 0 
0.875 0.375 0 
1 0.375 0 
0 0.5 0 
0.125 0.5 0 
0.25 0.5 0 
0.375 0.5 0 
0.5 0.5 0 
0.625 0.5 0 
0.75 0.5 0 
0.875 0.5 0 
1 0.5 0 
0 0.625 0 
0.125 0.625 0 
0.25 0.625 0 
0.375 0.625 0 
0.5 0.625 0 
0.625 0.625 0 
0.75 0.625 0 
0.875 0.625 0 
1 0.625 0 
0 0.75 0 
0.125 0.75 0 
0.25 0.75 0 
0.375 0.75 0 
0.5 0.75 0 
0.625 0.75 0 
0.75 0.75 0 
0.875 0.75 0 
1 0.75 0 
0 0.875 0 
0.125 0.875 0 
0.25 0.875 0 
0.375 0.875 0 
0.5 0.875 0 
0.625 0.875 0 
0.75 0.875 0 
0.875 0.875 0 
1 0.875 0 
0 1 0 
0.125 1 0 
0.25 1 0 
0.375 1 0 
0.5 1 0 
0.625 1 0 
0.75 1 0 
0.875 1 0 
1 1 0 
0 0 0.165 
0.125 0 0.165 
0.25 0 0.165 
0.375 0 0.165 
0.5 0 0.165 
0.625 0 0.165 
0.75 0 0.165 
0.875 0 0.165 
1 0 0.165 
0 0.125 0.165 
0.125 0.125 0.165 
0.25 0.125 0.165 
0.375 0.125 0.165 
0.5 0.125 0.165 
0.625 0.125 0.165 
0.75 0.125 0.165 
0.875 0.125 0.165 
1 0.125 0.165 
0 0.25 0.165 
0.125 0.25 0.165 
0.25 0.25 0.165 
0.375 0.25 0.165 
0.5 0.25 0.165 
0.625 0.25 0.165 
0.75 0.25 0.165 
0.875 0.25 0.165 
1 0.25 0.165 
0 0.375 0.165 
0.125 0.375 0.165 
0.25 0.375 0.165 
0.375 0.375 0.165 
0.5 0.375 0.165 
0.625 0.375 0.165 
0.75 0.375 0.165 
0.875 0.375 0.165 
1 0.375 0.165 
0 0.5 0.165 
0.125 0.5 0.165 
0.25 0.5 0.165 
0.375 0.5 0.165 
0.5 0.5 0.165 
0.625 0.5 0.165 
0.75 0.5 0.165 
0.875 0.5 0.165 
1 0.5 0.165 
0 0.625 0.165 
0.125 0.625 0.165 
0.25 0.625 0.165 
0.375 0.625 0.165 
0.5 0.625 0.165 
0.625 0.625 0.165 
0.75 0.625 0.165 
0.875 0.625 0.165 
1 0.625 0.165 
0 0.75 0.165 
0.125 0.75 0.165 
0.25 0.75 0.165 
0.375 0.75 0.165 
0.5 0.75 0.165 
0.625 0.75 0.165 
0.75 0.75 0.165 
0.875 0.75 0.165 
1 0.75 0.165 
0 0.875 0.165 
0.125 0.875 0.165 
0.25 0.875 0.165 
0.375 0.875 0.165 
0.5 0.875 0.165 
0.625 0.875 0.165 
0.75 0.875 0.165 
0.875 0.875 0.165 
1 0.875 0.165 
0 1 0.165 
0.125 1 0.165 
0.25 1 0.165 
0.375 1 0.165 
0.5 1 0.165 
0.625 1 0.165 
0.75 1 0.165 
0.875 1 0.165 
1 1 0.165 
0 0 0.33 
0.125 0 0.33 
0.25 0 0.33 
0.375 0 0.33 
0.5 0 0.33 
0.625 0 0.33 
0.75 0 0.33 
0.875 0 0.33 
1 0 0.33 
0 0.125 0.33 
0.125 0.125 0.33 
0.25 0.125 0.33 
0.375 0.125 0.33 
0.5 0.125 0.33 
0.625 0.125 0.33 
0.75 0.125 0.33 
0.875 0.125 0.33 
1 0.125 0.33 
0 0.25 0.33 
0.125 0.25 0.33 
0.25 0.25 0.33 
0.375 0.25 0.33 
0.5 0.25 0.33 
0.625 0.25 0.33 
0.75 0.25 0.33 
0.875 0.25 0.33 
1 0.25 0.33 
0 0.375 0.33 
0.125 0.375 0.33 
0.25 0.375 0.33 
0.375 0.375 0.33 
0.5 0.375 0.33 
0.625 0.375 0.33 
0.75 0.375 0.33 
0.875 0.375 0.33 
1 0.375 0.33 
0 0.5 0.33 
0.125 0.5 0.33 
0.25 0.5 0.33 
0.375 0.5 0.33 
0.5 0.5 0.33 
0.625 0.5 0.33 
0.75 0.5 0.33 
0.875 0.5 0.33 
1 0.5 0.33 
0 0.625 0.33 
0.125 0.625 0.33 
0.25 0.625 0.33 
0.375 0.625 0.33 
0.5 0.625 0.33 
0.625 0.625 0.33 
0.75 0.625 0.33 
0.875 0.625 0.33 
1 0.625 0.33 
0 0.75 0.33 
0.125 0.75 0.33 
0.25 0.75 0.33 
0.375 0.75 0.33 
0.5 0.75 0.33 
0.625 0.75 0.33 
0.75 0.75 0.33 
0.875 0.75 0.33 
1 0.75 0.33 
0 0.875 0.33 
0.125 0.875 0.33 
0.25 0.875 0.33 
0.375 0.875 0.33 
0.5 0.875 0.33 
0.625 0.875 0.33 
0.75 0.875 0.33 
0.875 0.875 0.33 
1 0.875 0.33 
0 1 0.33 
0.125 1 0.33 
0.25 1 0.33 
0.375 1 0.33 
0.5 1 0.33 
0.625 1 0.33 
0.75 1 0.33 
0.875 1 0.33 
1 1 0.33 

CELLS 16 448
27 0 2 20 18 162 164 182 180 1 11 19 9 163 173 181 171 81 83 99 101 90 92 82 100 10 172 91 
27 2 4 22 20 164 166 184 182 3 13 21 11 165 175 183 173 83 85 101 103 92 94 84 102 12 174 93 
27 4 6 24 22 166 168 186 184 5 15 23 13 167 177 185 175 85 87 103 105 94 96 86 104 14 176 95 
27 6 8 26 24 168 170 188 186 7 17 25 15 169 179 187 177 87 89 105 107 96 98 88 106 16 178 97 
27 18 20 38 36 180 182 200 198 19 29 37 27 181 191 199 189 99 101 117 119 108 110 100 118 28 190 109 
27 20 22 40 38 182 184 202 200 21 31 39 29 183 193 201 191 101 103 119 121 110 112 102 120 30 192 111 
27 22 24 42 40 184 186 204 202 23 33 41 31 185 195 203 193 103 105 121 123 112 114 104 122 32 194 113 
27 24 26 44 42 186 188 206 204 25 35 43 33 187 197 205 195 105 107 123 125 114 116 106 124 34 196 115 
27 36 38 56 54 198 200 218 216 37 47 55 45 199 209 217 207 117 119 135 137 126 128 118 136 46 208 127 
27 38 40 58 56 200 202 220 218 39 49 57 47 201 211 219 209 119 121 137 139 128 130 120 138 48 210 129 
27 40 42 60 58 202 204 222 220 41 51 59 49 203 213 221 211 121 123 139 141 130 132 122 140 50 212 131 
27 42 44 62 60 204 206 224 222 43 53 61 51 205 215 223 213 123 125 141 143 132 134 124 142 52 214 133 
27 54 56 74 72 216 218 236 234 55 65 73 63 217 227 235 225 135 137 153 155 144 146 136 154 64 226 145 
27 56 58 76 74 218 220 238 236 57 67 75 65 219 229 237 227 137 139 155 157 146 148 138 156 66 228 147 
27 58 60 78 76 220 222 240 238 59 69 77 67 221 231 239 229 139 141 157 159 148 150 140 158 68 230 149 
27 60 62 80 78 222 224 242 240 61 71 79 69 223 233 241 231 141 143 159 161 150 152 142 160 70 232 151 

CELL_TYPES 16
72
72
72
72
72
72
72
72
72
72
72
72
72
72
72
72

POINT_DATA 243
SCALARS point_var float 1
LOOKUP_TABLE default
0
1
2
3
4
5
6
7
8
9
10
11
12
13
14
15
16
17
18
19
20
21
22
23
24
25
26
27
28
29
30
31
32
33
34
35
36
37
38
39
40
41
42
43
44
45
46
47
48
49
50
51
52
53
54
55
56
57
58
59
60
61
62
63
64
65
66
67
68
69
70
71
72
73
74
75
76
77
78
79
80
81
82
83
84
85
86
87
88
89
90
91
92
93
94
95
96
97
98
99
100
101
102
103
104
105
106
107
108
109
110
111
112
113
114
115
116
117
118
119
120
121
122
123
124
125
126
127
128
129
130
131
132
133
134
135
136
137
138
139
140
141
142
143
144
145
146
147
148
149
150
151
152
153
154
155
156
157
158
159
160
161
162
163
164
165
166
167
168
169
170
171
172
173
174
175
176
177
178
179
180
181
182
183
184
185
186
187
188
189
190
191
192
193
194
195
196
197
198
199
200
201
202
203
204
205
206
207
208
209
210
211
212
213
214
215
216
217
218
219
220
221
222
223
224
225
226
227
228
229
230
231
232
233
234
235
236
237
238
239
240
241
242

VECTORS point_vec float
0 1 2
0 1 2
0 1 2
0 1 2
0 1 2
0 1 2
0 1 2
0 1 2
0 1 2
0 1 2
0 1 2
0 1 2
0 1 2
0 1 2
0 1 2
0 1 2
0 1 2
0 1 2
0 1 2
0 1 2
0 1 2
0 1 2
0 1 2
0 1 2
0 1 2
0 1 2
0 1 2
0 1 2
0 1 2
0 1 2
0 1 2
0 1 2
0 1 2
0 1 2
0 1 2
0 1 2
0 1 2
0 1 2
0 1 2
0 1 2
0 1 2
0 1 2
0 1 2
0 1 2
0 1 2
0 1 2
0 1 2
0 1 2
0 1 2
0 1 2
0 1 2
0 1 2
0 1 2
0 1 2
0 1 2
0 1 2
0 1 2
0 1 2
0 1 2
0 1 2
0 1 2
0 1 2
0 1 2
0 1 2
0 1 2
0 1 2
0 1 2
0 1 2
0 1 2
0 1 2
0 1 2
0 1 2
0 1 2
0 1 2
0 1 2
0 1 2
0 1 2
0 1 2
0 1 2
0 1 2
0 1 2
0 1 2
0 1 2
0 1 2
0 1 2
0 1 2
0 1 2
0 1 2
0 1 2
0 1 2
0 1 2
0 1 2
0 1 2
0 1 2
0 1 2
0 1 2
0 1 2
0 1 2
0 1 2
0 1 2
0 1 2
0 1 2
0 1 2
0 1 2
0 1 2
0 1 2
0 1 2
0 1 2
0 1 2
0 1 2
0 1 2
0 1 2
0 1 2
0 1 2
0 1 2
0 1 2
0 1 2
0 1 2
0 1 2
0 1 2
0 1 2
0 1 2
0 1 2
0 1 2
0 1 2
0 1 2
0 1 2
0 1 2
0 1 2
0 1 2
0 1 2
0 1 2
0 1 2
0 1 2
0 1 2
0 1 2
0 1 2
0 1 2
0 1 2
0 1 2
0 1 2
0 1 2
0 1 2
0 1 2
0 1 2
0 1 2
0 1 2
0 1 2
0 1 2
0 1 2
0 1 2
0 1 2
0 1 2
0 1 2
0 1 2
0 1 2
0 1 2
0 1 2
0 1 2
0 1 2
0 1 2
0 1 2
0 1 2
0 1 2
0 1 2
0 1 2
0 1 2
0 1 2
0 1 2
0 1 2
0 1 2
0 1 2
0 1 2
0 1 2
0 1 2
0 1 2
0 1 2
0 1 2
0 1 2
0 1 2
0 1 2
0 1 2
0 1 2
0 1 2
0 1 2
0 1 2
0 1 2
0 1 2
0 1 2
0 1 2
0 1 2
0 1 2
0 1 2
0 1 2
0 1 2
0 1 2
0 1 2
0 1 2
0 1 2
0 1 2
0 1 2
0 1 2
0 1 2
0 1 2
0 1 2
0 1 2
0 1 2
0 1 2
0 1 2
0 1 2
0 1 2
0 1 2
0 1 2
0 1 2
0 1 2
0 1 2
0 1 2
0 1 2
0 1 2
0 1 2
0 1 2
0 1 2
0 1 2
0 1 2
0 1 2
0 1 2
0 1 2
0 1 2
0 1 2
0 1 2
0 1 2
0 1 2
0 1 2
0 1 2
0 1 2
0 1 2
0 1 2
0 1 2
0 1 2
0 1 2
0 1 2
0 1 2
0 1 2

CELL_DATA 16
SCALARS elem_var float 1
LOOKUP_TABLE default 
0
1
2
3
4
5
6
7
8
9
10
11
12
13
14
15

SCALARS elem_var2 float 1
LOOKUP_TABLE default 
0
18446744073709551615
18446744073709551614
18446744073709551613
18446744073709551612
18446744073709551611
18446744073709551610
18446744073709551609
18446744073709551608
18446744073709551607
18446744073709551606
18446744073709551605
18446744073709551604
18446744073709551603
18446744073709551602
18446744073709551601
