# vtk DataFile Version 2.0
Mesh for Fierro
ASCII
DATASET UNSTRUCTURED_GRID

POINTS 400 float
0 0 0 
0.111111 0 0 
0.222222 0 0 
0.333333 0 0 
0.444444 0 0 
0.555556 0 0 
0.666667 0 0 
0.777778 0 0 
0.888889 0 0 
1 0 0 
0 0.111111 0 
0.111111 0.111111 0 
0.222222 0.111111 0 
0.333333 0.111111 0 
0.444444 0.111111 0 
0.555556 0.111111 0 
0.666667 0.111111 0 
0.777778 0.111111 0 
0.888889 0.111111 0 
1 0.111111 0 
0 0.222222 0 
0.111111 0.222222 0 
0.222222 0.222222 0 
0.333333 0.222222 0 
0.444444 0.222222 0 
0.555556 0.222222 0 
0.666667 0.222222 0 
0.777778 0.222222 0 
0.888889 0.222222 0 
1 0.222222 0 
0 0.333333 0 
0.111111 0.333333 0 
0.222222 0.333333 0 
0.333333 0.333333 0 
0.444444 0.333333 0 
0.555556 0.333333 0 
0.666667 0.333333 0 
0.777778 0.333333 0 
0.888889 0.333333 0 
1 0.333333 0 
0 0.444444 0 
0.111111 0.444444 0 
0.222222 0.444444 0 
0.333333 0.444444 0 
0.444444 0.444444 0 
0.555556 0.444444 0 
0.666667 0.444444 0 
0.777778 0.444444 0 
0.888889 0.444444 0 
1 0.444444 0 
0 0.555556 0 
0.111111 0.555556 0 
0.222222 0.555556 0 
0.333333 0.555556 0 
0.444444 0.555556 0 
0.555556 0.555556 0 
0.666667 0.555556 0 
0.777778 0.555556 0 
0.888889 0.555556 0 
1 0.555556 0 
0 0.666667 0 
0.111111 0.666667 0 
0.222222 0.666667 0 
0.333333 0.666667 0 
0.444444 0.666667 0 
0.555556 0.666667 0 
0.666667 0.666667 0 
0.777778 0.666667 0 
0.888889 0.666667 0 
1 0.666667 0 
0 0.777778 0 
0.111111 0.777778 0 
0.222222 0.777778 0 
0.333333 0.777778 0 
0.444444 0.777778 0 
0.555556 0.777778 0 
0.666667 0.777778 0 
0.777778 0.777778 0 
0.888889 0.777778 0 
1 0.777778 0 
0 0.888889 0 
0.111111 0.888889 0 
0.222222 0.888889 0 
0.333333 0.888889 0 
0.444444 0.888889 0 
0.555556 0.888889 0 
0.666667 0.888889 0 
0.777778 0.888889 0 
0.888889 0.888889 0 
1 0.888889 0 
0 1 0 
0.111111 1 0 
0.222222 1 0 
0.333333 1 0 
0.444444 1 0 
0.555556 1 0 
0.666667 1 0 
0.777778 1 0 
0.888889 1 0 
1 1 0 
0 0 0.11 
0.111111 0 0.11 
0.222222 0 0.11 
0.333333 0 0.11 
0.444444 0 0.11 
0.555556 0 0.11 
0.666667 0 0.11 
0.777778 0 0.11 
0.888889 0 0.11 
1 0 0.11 
0 0.111111 0.11 
0.111111 0.111111 0.11 
0.222222 0.111111 0.11 
0.333333 0.111111 0.11 
0.444444 0.111111 0.11 
0.555556 0.111111 0.11 
0.666667 0.111111 0.11 
0.777778 0.111111 0.11 
0.888889 0.111111 0.11 
1 0.111111 0.11 
0 0.222222 0.11 
0.111111 0.222222 0.11 
0.222222 0.222222 0.11 
0.333333 0.222222 0.11 
0.444444 0.222222 0.11 
0.555556 0.222222 0.11 
0.666667 0.222222 0.11 
0.777778 0.222222 0.11 
0.888889 0.222222 0.11 
1 0.222222 0.11 
0 0.333333 0.11 
0.111111 0.333333 0.11 
0.222222 0.333333 0.11 
0.333333 0.333333 0.11 
0.444444 0.333333 0.11 
0.555556 0.333333 0.11 
0.666667 0.333333 0.11 
0.777778 0.333333 0.11 
0.888889 0.333333 0.11 
1 0.333333 0.11 
0 0.444444 0.11 
0.111111 0.444444 0.11 
0.222222 0.444444 0.11 
0.333333 0.444444 0.11 
0.444444 0.444444 0.11 
0.555556 0.444444 0.11 
0.666667 0.444444 0.11 
0.777778 0.444444 0.11 
0.888889 0.444444 0.11 
1 0.444444 0.11 
0 0.555556 0.11 
0.111111 0.555556 0.11 
0.222222 0.555556 0.11 
0.333333 0.555556 0.11 
0.444444 0.555556 0.11 
0.555556 0.555556 0.11 
0.666667 0.555556 0.11 
0.777778 0.555556 0.11 
0.888889 0.555556 0.11 
1 0.555556 0.11 
0 0.666667 0.11 
0.111111 0.666667 0.11 
0.222222 0.666667 0.11 
0.333333 0.666667 0.11 
0.444444 0.666667 0.11 
0.555556 0.666667 0.11 
0.666667 0.666667 0.11 
0.777778 0.666667 0.11 
0.888889 0.666667 0.11 
1 0.666667 0.11 
0 0.777778 0.11 
0.111111 0.777778 0.11 
0.222222 0.777778 0.11 
0.333333 0.777778 0.11 
0.444444 0.777778 0.11 
0.555556 0.777778 0.11 
0.666667 0.777778 0.11 
0.777778 0.777778 0.11 
0.888889 0.777778 0.11 
1 0.777778 0.11 
0 0.888889 0.11 
0.111111 0.888889 0.11 
0.222222 0.888889 0.11 
0.333333 0.888889 0.11 
0.444444 0.888889 0.11 
0.555556 0.888889 0.11 
0.666667 0.888889 0.11 
0.777778 0.888889 0.11 
0.888889 0.888889 0.11 
1 0.888889 0.11 
0 1 0.11 
0.111111 1 0.11 
0.222222 1 0.11 
0.333333 1 0.11 
0.444444 1 0.11 
0.555556 1 0.11 
0.666667 1 0.11 
0.777778 1 0.11 
0.888889 1 0.11 
1 1 0.11 
0 0 0.22 
0.111111 0 0.22 
0.222222 0 0.22 
0.333333 0 0.22 
0.444444 0 0.22 
0.555556 0 0.22 
0.666667 0 0.22 
0.777778 0 0.22 
0.888889 0 0.22 
1 0 0.22 
0 0.111111 0.22 
0.111111 0.111111 0.22 
0.222222 0.111111 0.22 
0.333333 0.111111 0.22 
0.444444 0.111111 0.22 
0.555556 0.111111 0.22 
0.666667 0.111111 0.22 
0.777778 0.111111 0.22 
0.888889 0.111111 0.22 
1 0.111111 0.22 
0 0.222222 0.22 
0.111111 0.222222 0.22 
0.222222 0.222222 0.22 
0.333333 0.222222 0.22 
0.444444 0.222222 0.22 
0.555556 0.222222 0.22 
0.666667 0.222222 0.22 
0.777778 0.222222 0.22 
0.888889 0.222222 0.22 
1 0.222222 0.22 
0 0.333333 0.22 
0.111111 0.333333 0.22 
0.222222 0.333333 0.22 
0.333333 0.333333 0.22 
0.444444 0.333333 0.22 
0.555556 0.333333 0.22 
0.666667 0.333333 0.22 
0.777778 0.333333 0.22 
0.888889 0.333333 0.22 
1 0.333333 0.22 
0 0.444444 0.22 
0.111111 0.444444 0.22 
0.222222 0.444444 0.22 
0.333333 0.444444 0.22 
0.444444 0.444444 0.22 
0.555556 0.444444 0.22 
0.666667 0.444444 0.22 
0.777778 0.444444 0.22 
0.888889 0.444444 0.22 
1 0.444444 0.22 
0 0.555556 0.22 
0.111111 0.555556 0.22 
0.222222 0.555556 0.22 
0.333333 0.555556 0.22 
0.444444 0.555556 0.22 
0.555556 0.555556 0.22 
0.666667 0.555556 0.22 
0.777778 0.555556 0.22 
0.888889 0.555556 0.22 
1 0.555556 0.22 
0 0.666667 0.22 
0.111111 0.666667 0.22 
0.222222 0.666667 0.22 
0.333333 0.666667 0.22 
0.444444 0.666667 0.22 
0.555556 0.666667 0.22 
0.666667 0.666667 0.22 
0.777778 0.666667 0.22 
0.888889 0.666667 0.22 
1 0.666667 0.22 
0 0.777778 0.22 
0.111111 0.777778 0.22 
0.222222 0.777778 0.22 
0.333333 0.777778 0.22 
0.444444 0.777778 0.22 
0.555556 0.777778 0.22 
0.666667 0.777778 0.22 
0.777778 0.777778 0.22 
0.888889 0.777778 0.22 
1 0.777778 0.22 
0 0.888889 0.22 
0.111111 0.888889 0.22 
0.222222 0.888889 0.22 
0.333333 0.888889 0.22 
0.444444 0.888889 0.22 
0.555556 0.888889 0.22 
0.666667 0.888889 0.22 
0.777778 0.888889 0.22 
0.888889 0.888889 0.22 
1 0.888889 0.22 
0 1 0.22 
0.111111 1 0.22 
0.222222 1 0.22 
0.333333 1 0.22 
0.444444 1 0.22 
0.555556 1 0.22 
0.666667 1 0.22 
0.777778 1 0.22 
0.888889 1 0.22 
1 1 0.22 
0 0 0.33 
0.111111 0 0.33 
0.222222 0 0.33 
0.333333 0 0.33 
0.444444 0 0.33 
0.555556 0 0.33 
0.666667 0 0.33 
0.777778 0 0.33 
0.888889 0 0.33 
1 0 0.33 
0 0.111111 0.33 
0.111111 0.111111 0.33 
0.222222 0.111111 0.33 
0.333333 0.111111 0.33 
0.444444 0.111111 0.33 
0.555556 0.111111 0.33 
0.666667 0.111111 0.33 
0.777778 0.111111 0.33 
0.888889 0.111111 0.33 
1 0.111111 0.33 
0 0.222222 0.33 
0.111111 0.222222 0.33 
0.222222 0.222222 0.33 
0.333333 0.222222 0.33 
0.444444 0.222222 0.33 
0.555556 0.222222 0.33 
0.666667 0.222222 0.33 
0.777778 0.222222 0.33 
0.888889 0.222222 0.33 
1 0.222222 0.33 
0 0.333333 0.33 
0.111111 0.333333 0.33 
0.222222 0.333333 0.33 
0.333333 0.333333 0.33 
0.444444 0.333333 0.33 
0.555556 0.333333 0.33 
0.666667 0.333333 0.33 
0.777778 0.333333 0.33 
0.888889 0.333333 0.33 
1 0.333333 0.33 
0 0.444444 0.33 
0.111111 0.444444 0.33 
0.222222 0.444444 0.33 
0.333333 0.444444 0.33 
0.444444 0.444444 0.33 
0.555556 0.444444 0.33 
0.666667 0.444444 0.33 
0.777778 0.444444 0.33 
0.888889 0.444444 0.33 
1 0.444444 0.33 
0 0.555556 0.33 
0.111111 0.555556 0.33 
0.222222 0.555556 0.33 
0.333333 0.555556 0.33 
0.444444 0.555556 0.33 
0.555556 0.555556 0.33 
0.666667 0.555556 0.33 
0.777778 0.555556 0.33 
0.888889 0.555556 0.33 
1 0.555556 0.33 
0 0.666667 0.33 
0.111111 0.666667 0.33 
0.222222 0.666667 0.33 
0.333333 0.666667 0.33 
0.444444 0.666667 0.33 
0.555556 0.666667 0.33 
0.666667 0.666667 0.33 
0.777778 0.666667 0.33 
0.888889 0.666667 0.33 
1 0.666667 0.33 
0 0.777778 0.33 
0.111111 0.777778 0.33 
0.222222 0.777778 0.33 
0.333333 0.777778 0.33 
0.444444 0.777778 0.33 
0.555556 0.777778 0.33 
0.666667 0.777778 0.33 
0.777778 0.777778 0.33 
0.888889 0.777778 0.33 
1 0.777778 0.33 
0 0.888889 0.33 
0.111111 0.888889 0.33 
0.222222 0.888889 0.33 
0.333333 0.888889 0.33 
0.444444 0.888889 0.33 
0.555556 0.888889 0.33 
0.666667 0.888889 0.33 
0.777778 0.888889 0.33 
0.888889 0.888889 0.33 
1 0.888889 0.33 
0 1 0.33 
0.111111 1 0.33 
0.222222 1 0.33 
0.333333 1 0.33 
0.444444 1 0.33 
0.555556 1 0.33 
0.666667 1 0.33 
0.777778 1 0.33 
0.888889 1 0.33 
1 1 0.33 

CELLS 9 585
64 0 3 33 30 300 303 333 330 1 2 13 23 31 32 10 20 301 302 313 323 331 332 310 320 100 200 103 203 130 230 133 233 110 120 210 220 113 123 213 223 101 102 201 202 131 132 231 232 11 12 21 22 311 312 321 322 111 112 121 122 211 212 221 222 
64 3 6 36 33 303 306 336 333 4 5 16 26 34 35 13 23 304 305 316 326 334 335 313 323 103 203 106 206 133 233 136 236 113 123 213 223 116 126 216 226 104 105 204 205 134 135 234 235 14 15 24 25 314 315 324 325 114 115 124 125 214 215 224 225 
64 6 9 39 36 306 309 339 336 7 8 19 29 37 38 16 26 307 308 319 329 337 338 316 326 106 206 109 209 136 236 139 239 116 126 216 226 119 129 219 229 107 108 207 208 137 138 237 238 17 18 27 28 317 318 327 328 117 118 127 128 217 218 227 228 
64 30 33 63 60 330 333 363 360 31 32 43 53 61 62 40 50 331 332 343 353 361 362 340 350 130 230 133 233 160 260 163 263 140 150 240 250 143 153 243 253 131 132 231 232 161 162 261 262 41 42 51 52 341 342 351 352 141 142 151 152 241 242 251 252 
64 33 36 66 63 333 336 366 363 34 35 46 56 64 65 43 53 334 335 346 356 364 365 343 353 133 233 136 236 163 263 166 266 143 153 243 253 146 156 246 256 134 135 234 235 164 165 264 265 44 45 54 55 344 345 354 355 144 145 154 155 244 245 254 255 
64 36 39 69 66 336 339 369 366 37 38 49 59 67 68 46 56 337 338 349 359 367 368 346 356 136 236 139 239 166 266 169 269 146 156 246 256 149 159 249 259 137 138 237 238 167 168 267 268 47 48 57 58 347 348 357 358 147 148 157 158 247 248 257 258 
64 60 63 93 90 360 363 393 390 61 62 73 83 91 92 70 80 361 362 373 383 391 392 370 380 160 260 163 263 190 290 193 293 170 180 270 280 173 183 273 283 161 162 261 262 191 192 291 292 71 72 81 82 371 372 381 382 171 172 181 182 271 272 281 282 
64 63 66 96 93 363 366 396 393 64 65 76 86 94 95 73 83 364 365 376 386 394 395 373 383 163 263 166 266 193 293 196 296 173 183 273 283 176 186 276 286 164 165 264 265 194 195 294 295 74 75 84 85 374 375 384 385 174 175 184 185 274 275 284 285 
64 66 69 99 96 366 369 399 396 67 68 79 89 97 98 76 86 367 368 379 389 397 398 376 386 166 266 169 269 196 296 199 299 176 186 276 286 179 189 279 289 167 168 267 268 197 198 297 298 77 78 87 88 377 378 387 388 177 178 187 188 277 278 287 288 

CELL_TYPES 9
72
72
72
72
72
72
72
72
72

POINT_DATA 400
SCALARS point_var float 1
LOOKUP_TABLE default
0
1
2
3
4
5
6
7
8
9
10
11
12
13
14
15
16
17
18
19
20
21
22
23
24
25
26
27
28
29
30
31
32
33
34
35
36
37
38
39
40
41
42
43
44
45
46
47
48
49
50
51
52
53
54
55
56
57
58
59
60
61
62
63
64
65
66
67
68
69
70
71
72
73
74
75
76
77
78
79
80
81
82
83
84
85
86
87
88
89
90
91
92
93
94
95
96
97
98
99
100
101
102
103
104
105
106
107
108
109
110
111
112
113
114
115
116
117
118
119
120
121
122
123
124
125
126
127
128
129
130
131
132
133
134
135
136
137
138
139
140
141
142
143
144
145
146
147
148
149
150
151
152
153
154
155
156
157
158
159
160
161
162
163
164
165
166
167
168
169
170
171
172
173
174
175
176
177
178
179
180
181
182
183
184
185
186
187
188
189
190
191
192
193
194
195
196
197
198
199
200
201
202
203
204
205
206
207
208
209
210
211
212
213
214
215
216
217
218
219
220
221
222
223
224
225
226
227
228
229
230
231
232
233
234
235
236
237
238
239
240
241
242
243
244
245
246
247
248
249
250
251
252
253
254
255
256
257
258
259
260
261
262
263
264
265
266
267
268
269
270
271
272
273
274
275
276
277
278
279
280
281
282
283
284
285
286
287
288
289
290
291
292
293
294
295
296
297
298
299
300
301
302
303
304
305
306
307
308
309
310
311
312
313
314
315
316
317
318
319
320
321
322
323
324
325
326
327
328
329
330
331
332
333
334
335
336
337
338
339
340
341
342
343
344
345
346
347
348
349
350
351
352
353
354
355
356
357
358
359
360
361
362
363
364
365
366
367
368
369
370
371
372
373
374
375
376
377
378
379
380
381
382
383
384
385
386
387
388
389
390
391
392
393
394
395
396
397
398
399

VECTORS point_vec float
0 1 2
0 1 2
0 1 2
0 1 2
0 1 2
0 1 2
0 1 2
0 1 2
0 1 2
0 1 2
0 1 2
0 1 2
0 1 2
0 1 2
0 1 2
0 1 2
0 1 2
0 1 2
0 1 2
0 1 2
0 1 2
0 1 2
0 1 2
0 1 2
0 1 2
0 1 2
0 1 2
0 1 2
0 1 2
0 1 2
0 1 2
0 1 2
0 1 2
0 1 2
0 1 2
0 1 2
0 1 2
0 1 2
0 1 2
0 1 2
0 1 2
0 1 2
0 1 2
0 1 2
0 1 2
0 1 2
0 1 2
0 1 2
0 1 2
0 1 2
0 1 2
0 1 2
0 1 2
0 1 2
0 1 2
0 1 2
0 1 2
0 1 2
0 1 2
0 1 2
0 1 2
0 1 2
0 1 2
0 1 2
0 1 2
0 1 2
0 1 2
0 1 2
0 1 2
0 1 2
0 1 2
0 1 2
0 1 2
0 1 2
0 1 2
0 1 2
0 1 2
0 1 2
0 1 2
0 1 2
0 1 2
0 1 2
0 1 2
0 1 2
0 1 2
0 1 2
0 1 2
0 1 2
0 1 2
0 1 2
0 1 2
0 1 2
0 1 2
0 1 2
0 1 2
0 1 2
0 1 2
0 1 2
0 1 2
0 1 2
0 1 2
0 1 2
0 1 2
0 1 2
0 1 2
0 1 2
0 1 2
0 1 2
0 1 2
0 1 2
0 1 2
0 1 2
0 1 2
0 1 2
0 1 2
0 1 2
0 1 2
0 1 2
0 1 2
0 1 2
0 1 2
0 1 2
0 1 2
0 1 2
0 1 2
0 1 2
0 1 2
0 1 2
0 1 2
0 1 2
0 1 2
0 1 2
0 1 2
0 1 2
0 1 2
0 1 2
0 1 2
0 1 2
0 1 2
0 1 2
0 1 2
0 1 2
0 1 2
0 1 2
0 1 2
0 1 2
0 1 2
0 1 2
0 1 2
0 1 2
0 1 2
0 1 2
0 1 2
0 1 2
0 1 2
0 1 2
0 1 2
0 1 2
0 1 2
0 1 2
0 1 2
0 1 2
0 1 2
0 1 2
0 1 2
0 1 2
0 1 2
0 1 2
0 1 2
0 1 2
0 1 2
0 1 2
0 1 2
0 1 2
0 1 2
0 1 2
0 1 2
0 1 2
0 1 2
0 1 2
0 1 2
0 1 2
0 1 2
0 1 2
0 1 2
0 1 2
0 1 2
0 1 2
0 1 2
0 1 2
0 1 2
0 1 2
0 1 2
0 1 2
0 1 2
0 1 2
0 1 2
0 1 2
0 1 2
0 1 2
0 1 2
0 1 2
0 1 2
0 1 2
0 1 2
0 1 2
0 1 2
0 1 2
0 1 2
0 1 2
0 1 2
0 1 2
0 1 2
0 1 2
0 1 2
0 1 2
0 1 2
0 1 2
0 1 2
0 1 2
0 1 2
0 1 2
0 1 2
0 1 2
0 1 2
0 1 2
0 1 2
0 1 2
0 1 2
0 1 2
0 1 2
0 1 2
0 1 2
0 1 2
0 1 2
0 1 2
0 1 2
0 1 2
0 1 2
0 1 2
0 1 2
0 1 2
0 1 2
0 1 2
0 1 2
0 1 2
0 1 2
0 1 2
0 1 2
0 1 2
0 1 2
0 1 2
0 1 2
0 1 2
0 1 2
0 1 2
0 1 2
0 1 2
0 1 2
0 1 2
0 1 2
0 1 2
0 1 2
0 1 2
0 1 2
0 1 2
0 1 2
0 1 2
0 1 2
0 1 2
0 1 2
0 1 2
0 1 2
0 1 2
0 1 2
0 1 2
0 1 2
0 1 2
0 1 2
0 1 2
0 1 2
0 1 2
0 1 2
0 1 2
0 1 2
0 1 2
0 1 2
0 1 2
0 1 2
0 1 2
0 1 2
0 1 2
0 1 2
0 1 2
0 1 2
0 1 2
0 1 2
0 1 2
0 1 2
0 1 2
0 1 2
0 1 2
0 1 2
0 1 2
0 1 2
0 1 2
0 1 2
0 1 2
0 1 2
0 1 2
0 1 2
0 1 2
0 1 2
0 1 2
0 1 2
0 1 2
0 1 2
0 1 2
0 1 2
0 1 2
0 1 2
0 1 2
0 1 2
0 1 2
0 1 2
0 1 2
0 1 2
0 1 2
0 1 2
0 1 2
0 1 2
0 1 2
0 1 2
0 1 2
0 1 2
0 1 2
0 1 2
0 1 2
0 1 2
0 1 2
0 1 2
0 1 2
0 1 2
0 1 2
0 1 2
0 1 2
0 1 2
0 1 2
0 1 2
0 1 2
0 1 2
0 1 2
0 1 2
0 1 2
0 1 2
0 1 2
0 1 2
0 1 2
0 1 2
0 1 2
0 1 2
0 1 2
0 1 2
0 1 2
0 1 2
0 1 2
0 1 2
0 1 2
0 1 2
0 1 2
0 1 2
0 1 2
0 1 2
0 1 2
0 1 2
0 1 2
0 1 2
0 1 2
0 1 2
0 1 2
0 1 2
0 1 2
0 1 2
0 1 2
0 1 2
0 1 2
0 1 2
0 1 2
0 1 2
0 1 2
0 1 2
0 1 2
0 1 2
0 1 2
0 1 2
0 1 2
0 1 2
0 1 2
0 1 2
0 1 2

CELL_DATA 9
SCALARS elem_var float 1
LOOKUP_TABLE default 
0
1
2
3
4
5
6
7
8

SCALARS elem_var2 float 1
LOOKUP_TABLE default 
0
18446744073709551615
18446744073709551614
18446744073709551613
18446744073709551612
18446744073709551611
18446744073709551610
18446744073709551609
18446744073709551608
