# vtk DataFile Version 2.0
Mesh for Fierro
ASCII
DATASET UNSTRUCTURED_GRID

POINTS 1250 float
0 0 0 
0.291667 0 0 
0.583333 0 0 
0.875 0 0 
1.16667 0 0 
1.45833 0 0 
1.75 0 0 
2.04167 0 0 
2.33333 0 0 
2.625 0 0 
2.91667 0 0 
3.20833 0 0 
3.5 0 0 
3.79167 0 0 
4.08333 0 0 
4.375 0 0 
4.66667 0 0 
4.95833 0 0 
5.25 0 0 
5.54167 0 0 
5.83333 0 0 
6.125 0 0 
6.41667 0 0 
6.70833 0 0 
7 0 0 
0 0.125 0 
0.291667 0.125 0 
0.583333 0.125 0 
0.875 0.125 0 
1.16667 0.125 0 
1.45833 0.125 0 
1.75 0.125 0 
2.04167 0.125 0 
2.33333 0.125 0 
2.625 0.125 0 
2.91667 0.125 0 
3.20833 0.125 0 
3.5 0.125 0 
3.79167 0.125 0 
4.08333 0.125 0 
4.375 0.125 0 
4.66667 0.125 0 
4.95833 0.125 0 
5.25 0.125 0 
5.54167 0.125 0 
5.83333 0.125 0 
6.125 0.125 0 
6.41667 0.125 0 
6.70833 0.125 0 
7 0.125 0 
0 0.25 0 
0.291667 0.25 0 
0.583333 0.25 0 
0.875 0.25 0 
1.16667 0.25 0 
1.45833 0.25 0 
1.75 0.25 0 
2.04167 0.25 0 
2.33333 0.25 0 
2.625 0.25 0 
2.91667 0.25 0 
3.20833 0.25 0 
3.5 0.25 0 
3.79167 0.25 0 
4.08333 0.25 0 
4.375 0.25 0 
4.66667 0.25 0 
4.95833 0.25 0 
5.25 0.25 0 
5.54167 0.25 0 
5.83333 0.25 0 
6.125 0.25 0 
6.41667 0.25 0 
6.70833 0.25 0 
7 0.25 0 
0 0.375 0 
0.291667 0.375 0 
0.583333 0.375 0 
0.875 0.375 0 
1.16667 0.375 0 
1.45833 0.375 0 
1.75 0.375 0 
2.04167 0.375 0 
2.33333 0.375 0 
2.625 0.375 0 
2.91667 0.375 0 
3.20833 0.375 0 
3.5 0.375 0 
3.79167 0.375 0 
4.08333 0.375 0 
4.375 0.375 0 
4.66667 0.375 0 
4.95833 0.375 0 
5.25 0.375 0 
5.54167 0.375 0 
5.83333 0.375 0 
6.125 0.375 0 
6.41667 0.375 0 
6.70833 0.375 0 
7 0.375 0 
0 0.5 0 
0.291667 0.5 0 
0.583333 0.5 0 
0.875 0.5 0 
1.16667 0.5 0 
1.45833 0.5 0 
1.75 0.5 0 
2.04167 0.5 0 
2.33333 0.5 0 
2.625 0.5 0 
2.91667 0.5 0 
3.20833 0.5 0 
3.5 0.5 0 
3.79167 0.5 0 
4.08333 0.5 0 
4.375 0.5 0 
4.66667 0.5 0 
4.95833 0.5 0 
5.25 0.5 0 
5.54167 0.5 0 
5.83333 0.5 0 
6.125 0.5 0 
6.41667 0.5 0 
6.70833 0.5 0 
7 0.5 0 
0 0.625 0 
0.291667 0.625 0 
0.583333 0.625 0 
0.875 0.625 0 
1.16667 0.625 0 
1.45833 0.625 0 
1.75 0.625 0 
2.04167 0.625 0 
2.33333 0.625 0 
2.625 0.625 0 
2.91667 0.625 0 
3.20833 0.625 0 
3.5 0.625 0 
3.79167 0.625 0 
4.08333 0.625 0 
4.375 0.625 0 
4.66667 0.625 0 
4.95833 0.625 0 
5.25 0.625 0 
5.54167 0.625 0 
5.83333 0.625 0 
6.125 0.625 0 
6.41667 0.625 0 
6.70833 0.625 0 
7 0.625 0 
0 0.75 0 
0.291667 0.75 0 
0.583333 0.75 0 
0.875 0.75 0 
1.16667 0.75 0 
1.45833 0.75 0 
1.75 0.75 0 
2.04167 0.75 0 
2.33333 0.75 0 
2.625 0.75 0 
2.91667 0.75 0 
3.20833 0.75 0 
3.5 0.75 0 
3.79167 0.75 0 
4.08333 0.75 0 
4.375 0.75 0 
4.66667 0.75 0 
4.95833 0.75 0 
5.25 0.75 0 
5.54167 0.75 0 
5.83333 0.75 0 
6.125 0.75 0 
6.41667 0.75 0 
6.70833 0.75 0 
7 0.75 0 
0 0.875 0 
0.291667 0.875 0 
0.583333 0.875 0 
0.875 0.875 0 
1.16667 0.875 0 
1.45833 0.875 0 
1.75 0.875 0 
2.04167 0.875 0 
2.33333 0.875 0 
2.625 0.875 0 
2.91667 0.875 0 
3.20833 0.875 0 
3.5 0.875 0 
3.79167 0.875 0 
4.08333 0.875 0 
4.375 0.875 0 
4.66667 0.875 0 
4.95833 0.875 0 
5.25 0.875 0 
5.54167 0.875 0 
5.83333 0.875 0 
6.125 0.875 0 
6.41667 0.875 0 
6.70833 0.875 0 
7 0.875 0 
0 1 0 
0.291667 1 0 
0.583333 1 0 
0.875 1 0 
1.16667 1 0 
1.45833 1 0 
1.75 1 0 
2.04167 1 0 
2.33333 1 0 
2.625 1 0 
2.91667 1 0 
3.20833 1 0 
3.5 1 0 
3.79167 1 0 
4.08333 1 0 
4.375 1 0 
4.66667 1 0 
4.95833 1 0 
5.25 1 0 
5.54167 1 0 
5.83333 1 0 
6.125 1 0 
6.41667 1 0 
6.70833 1 0 
7 1 0 
0 1.125 0 
0.291667 1.125 0 
0.583333 1.125 0 
0.875 1.125 0 
1.16667 1.125 0 
1.45833 1.125 0 
1.75 1.125 0 
2.04167 1.125 0 
2.33333 1.125 0 
2.625 1.125 0 
2.91667 1.125 0 
3.20833 1.125 0 
3.5 1.125 0 
3.79167 1.125 0 
4.08333 1.125 0 
4.375 1.125 0 
4.66667 1.125 0 
4.95833 1.125 0 
5.25 1.125 0 
5.54167 1.125 0 
5.83333 1.125 0 
6.125 1.125 0 
6.41667 1.125 0 
6.70833 1.125 0 
7 1.125 0 
0 1.25 0 
0.291667 1.25 0 
0.583333 1.25 0 
0.875 1.25 0 
1.16667 1.25 0 
1.45833 1.25 0 
1.75 1.25 0 
2.04167 1.25 0 
2.33333 1.25 0 
2.625 1.25 0 
2.91667 1.25 0 
3.20833 1.25 0 
3.5 1.25 0 
3.79167 1.25 0 
4.08333 1.25 0 
4.375 1.25 0 
4.66667 1.25 0 
4.95833 1.25 0 
5.25 1.25 0 
5.54167 1.25 0 
5.83333 1.25 0 
6.125 1.25 0 
6.41667 1.25 0 
6.70833 1.25 0 
7 1.25 0 
0 1.375 0 
0.291667 1.375 0 
0.583333 1.375 0 
0.875 1.375 0 
1.16667 1.375 0 
1.45833 1.375 0 
1.75 1.375 0 
2.04167 1.375 0 
2.33333 1.375 0 
2.625 1.375 0 
2.91667 1.375 0 
3.20833 1.375 0 
3.5 1.375 0 
3.79167 1.375 0 
4.08333 1.375 0 
4.375 1.375 0 
4.66667 1.375 0 
4.95833 1.375 0 
5.25 1.375 0 
5.54167 1.375 0 
5.83333 1.375 0 
6.125 1.375 0 
6.41667 1.375 0 
6.70833 1.375 0 
7 1.375 0 
0 1.5 0 
0.291667 1.5 0 
0.583333 1.5 0 
0.875 1.5 0 
1.16667 1.5 0 
1.45833 1.5 0 
1.75 1.5 0 
2.04167 1.5 0 
2.33333 1.5 0 
2.625 1.5 0 
2.91667 1.5 0 
3.20833 1.5 0 
3.5 1.5 0 
3.79167 1.5 0 
4.08333 1.5 0 
4.375 1.5 0 
4.66667 1.5 0 
4.95833 1.5 0 
5.25 1.5 0 
5.54167 1.5 0 
5.83333 1.5 0 
6.125 1.5 0 
6.41667 1.5 0 
6.70833 1.5 0 
7 1.5 0 
0 1.625 0 
0.291667 1.625 0 
0.583333 1.625 0 
0.875 1.625 0 
1.16667 1.625 0 
1.45833 1.625 0 
1.75 1.625 0 
2.04167 1.625 0 
2.33333 1.625 0 
2.625 1.625 0 
2.91667 1.625 0 
3.20833 1.625 0 
3.5 1.625 0 
3.79167 1.625 0 
4.08333 1.625 0 
4.375 1.625 0 
4.66667 1.625 0 
4.95833 1.625 0 
5.25 1.625 0 
5.54167 1.625 0 
5.83333 1.625 0 
6.125 1.625 0 
6.41667 1.625 0 
6.70833 1.625 0 
7 1.625 0 
0 1.75 0 
0.291667 1.75 0 
0.583333 1.75 0 
0.875 1.75 0 
1.16667 1.75 0 
1.45833 1.75 0 
1.75 1.75 0 
2.04167 1.75 0 
2.33333 1.75 0 
2.625 1.75 0 
2.91667 1.75 0 
3.20833 1.75 0 
3.5 1.75 0 
3.79167 1.75 0 
4.08333 1.75 0 
4.375 1.75 0 
4.66667 1.75 0 
4.95833 1.75 0 
5.25 1.75 0 
5.54167 1.75 0 
5.83333 1.75 0 
6.125 1.75 0 
6.41667 1.75 0 
6.70833 1.75 0 
7 1.75 0 
0 1.875 0 
0.291667 1.875 0 
0.583333 1.875 0 
0.875 1.875 0 
1.16667 1.875 0 
1.45833 1.875 0 
1.75 1.875 0 
2.04167 1.875 0 
2.33333 1.875 0 
2.625 1.875 0 
2.91667 1.875 0 
3.20833 1.875 0 
3.5 1.875 0 
3.79167 1.875 0 
4.08333 1.875 0 
4.375 1.875 0 
4.66667 1.875 0 
4.95833 1.875 0 
5.25 1.875 0 
5.54167 1.875 0 
5.83333 1.875 0 
6.125 1.875 0 
6.41667 1.875 0 
6.70833 1.875 0 
7 1.875 0 
0 2 0 
0.291667 2 0 
0.583333 2 0 
0.875 2 0 
1.16667 2 0 
1.45833 2 0 
1.75 2 0 
2.04167 2 0 
2.33333 2 0 
2.625 2 0 
2.91667 2 0 
3.20833 2 0 
3.5 2 0 
3.79167 2 0 
4.08333 2 0 
4.375 2 0 
4.66667 2 0 
4.95833 2 0 
5.25 2 0 
5.54167 2 0 
5.83333 2 0 
6.125 2 0 
6.41667 2 0 
6.70833 2 0 
7 2 0 
0 2.125 0 
0.291667 2.125 0 
0.583333 2.125 0 
0.875 2.125 0 
1.16667 2.125 0 
1.45833 2.125 0 
1.75 2.125 0 
2.04167 2.125 0 
2.33333 2.125 0 
2.625 2.125 0 
2.91667 2.125 0 
3.20833 2.125 0 
3.5 2.125 0 
3.79167 2.125 0 
4.08333 2.125 0 
4.375 2.125 0 
4.66667 2.125 0 
4.95833 2.125 0 
5.25 2.125 0 
5.54167 2.125 0 
5.83333 2.125 0 
6.125 2.125 0 
6.41667 2.125 0 
6.70833 2.125 0 
7 2.125 0 
0 2.25 0 
0.291667 2.25 0 
0.583333 2.25 0 
0.875 2.25 0 
1.16667 2.25 0 
1.45833 2.25 0 
1.75 2.25 0 
2.04167 2.25 0 
2.33333 2.25 0 
2.625 2.25 0 
2.91667 2.25 0 
3.20833 2.25 0 
3.5 2.25 0 
3.79167 2.25 0 
4.08333 2.25 0 
4.375 2.25 0 
4.66667 2.25 0 
4.95833 2.25 0 
5.25 2.25 0 
5.54167 2.25 0 
5.83333 2.25 0 
6.125 2.25 0 
6.41667 2.25 0 
6.70833 2.25 0 
7 2.25 0 
0 2.375 0 
0.291667 2.375 0 
0.583333 2.375 0 
0.875 2.375 0 
1.16667 2.375 0 
1.45833 2.375 0 
1.75 2.375 0 
2.04167 2.375 0 
2.33333 2.375 0 
2.625 2.375 0 
2.91667 2.375 0 
3.20833 2.375 0 
3.5 2.375 0 
3.79167 2.375 0 
4.08333 2.375 0 
4.375 2.375 0 
4.66667 2.375 0 
4.95833 2.375 0 
5.25 2.375 0 
5.54167 2.375 0 
5.83333 2.375 0 
6.125 2.375 0 
6.41667 2.375 0 
6.70833 2.375 0 
7 2.375 0 
0 2.5 0 
0.291667 2.5 0 
0.583333 2.5 0 
0.875 2.5 0 
1.16667 2.5 0 
1.45833 2.5 0 
1.75 2.5 0 
2.04167 2.5 0 
2.33333 2.5 0 
2.625 2.5 0 
2.91667 2.5 0 
3.20833 2.5 0 
3.5 2.5 0 
3.79167 2.5 0 
4.08333 2.5 0 
4.375 2.5 0 
4.66667 2.5 0 
4.95833 2.5 0 
5.25 2.5 0 
5.54167 2.5 0 
5.83333 2.5 0 
6.125 2.5 0 
6.41667 2.5 0 
6.70833 2.5 0 
7 2.5 0 
0 2.625 0 
0.291667 2.625 0 
0.583333 2.625 0 
0.875 2.625 0 
1.16667 2.625 0 
1.45833 2.625 0 
1.75 2.625 0 
2.04167 2.625 0 
2.33333 2.625 0 
2.625 2.625 0 
2.91667 2.625 0 
3.20833 2.625 0 
3.5 2.625 0 
3.79167 2.625 0 
4.08333 2.625 0 
4.375 2.625 0 
4.66667 2.625 0 
4.95833 2.625 0 
5.25 2.625 0 
5.54167 2.625 0 
5.83333 2.625 0 
6.125 2.625 0 
6.41667 2.625 0 
6.70833 2.625 0 
7 2.625 0 
0 2.75 0 
0.291667 2.75 0 
0.583333 2.75 0 
0.875 2.75 0 
1.16667 2.75 0 
1.45833 2.75 0 
1.75 2.75 0 
2.04167 2.75 0 
2.33333 2.75 0 
2.625 2.75 0 
2.91667 2.75 0 
3.20833 2.75 0 
3.5 2.75 0 
3.79167 2.75 0 
4.08333 2.75 0 
4.375 2.75 0 
4.66667 2.75 0 
4.95833 2.75 0 
5.25 2.75 0 
5.54167 2.75 0 
5.83333 2.75 0 
6.125 2.75 0 
6.41667 2.75 0 
6.70833 2.75 0 
7 2.75 0 
0 2.875 0 
0.291667 2.875 0 
0.583333 2.875 0 
0.875 2.875 0 
1.16667 2.875 0 
1.45833 2.875 0 
1.75 2.875 0 
2.04167 2.875 0 
2.33333 2.875 0 
2.625 2.875 0 
2.91667 2.875 0 
3.20833 2.875 0 
3.5 2.875 0 
3.79167 2.875 0 
4.08333 2.875 0 
4.375 2.875 0 
4.66667 2.875 0 
4.95833 2.875 0 
5.25 2.875 0 
5.54167 2.875 0 
5.83333 2.875 0 
6.125 2.875 0 
6.41667 2.875 0 
6.70833 2.875 0 
7 2.875 0 
0 3 0 
0.291667 3 0 
0.583333 3 0 
0.875 3 0 
1.16667 3 0 
1.45833 3 0 
1.75 3 0 
2.04167 3 0 
2.33333 3 0 
2.625 3 0 
2.91667 3 0 
3.20833 3 0 
3.5 3 0 
3.79167 3 0 
4.08333 3 0 
4.375 3 0 
4.66667 3 0 
4.95833 3 0 
5.25 3 0 
5.54167 3 0 
5.83333 3 0 
6.125 3 0 
6.41667 3 0 
6.70833 3 0 
7 3 0 
0 0 0.1 
0.291667 0 0.1 
0.583333 0 0.1 
0.875 0 0.1 
1.16667 0 0.1 
1.45833 0 0.1 
1.75 0 0.1 
2.04167 0 0.1 
2.33333 0 0.1 
2.625 0 0.1 
2.91667 0 0.1 
3.20833 0 0.1 
3.5 0 0.1 
3.79167 0 0.1 
4.08333 0 0.1 
4.375 0 0.1 
4.66667 0 0.1 
4.95833 0 0.1 
5.25 0 0.1 
5.54167 0 0.1 
5.83333 0 0.1 
6.125 0 0.1 
6.41667 0 0.1 
6.70833 0 0.1 
7 0 0.1 
0 0.125 0.1 
0.291667 0.125 0.1 
0.583333 0.125 0.1 
0.875 0.125 0.1 
1.16667 0.125 0.1 
1.45833 0.125 0.1 
1.75 0.125 0.1 
2.04167 0.125 0.1 
2.33333 0.125 0.1 
2.625 0.125 0.1 
2.91667 0.125 0.1 
3.20833 0.125 0.1 
3.5 0.125 0.1 
3.79167 0.125 0.1 
4.08333 0.125 0.1 
4.375 0.125 0.1 
4.66667 0.125 0.1 
4.95833 0.125 0.1 
[...]
POINT_DATA 1250
SCALARS point_var float 1
LOOKUP_TABLE default
0
1
2
3
4
5
6
7
8
9
10
11
12
13
14
15
16
17
18
19
20
21
22
23
24
25
26
27
28
29
30
31
32
33
34
35
36
37
38
39
40
41
42
43
44
45
46
47
48
49
50
51
52
53
54
55
56
57
58
59
60
61
62
63
64
65
66
67
68
69
70
71
72
73
74
75
76
77
78
79
80
81
82
83
84
85
86
87
88
89
90
91
92
93
94
95
96
97
98
99
100
101
102
103
104
105
106
107
108
109
110
111
112
113
114
115
116
117
118
119
120
121
122
123
124
125
126
127
128
129
130
131
132
133
134
135
136
137
138
139
140
141
142
143
144
145
146
147
148
149
150
151
152
153
154
155
156
157
158
159
160
161
162
163
164
165
166
167
168
169
170
171
172
173
174
175
176
177
178
179
180
181
182
183
184
185
186
187
188
189
190
191
192
193
194
195
196
197
198
199
200
201
202
203
204
205
206
207
208
209
210
211
212
213
214
215
216
217
218
219
220
221
222
223
224
225
226
227
228
229
230
231
232
233
234
235
236
237
238
239
240
241
242
243
244
245
246
247
248
249
250
251
252
253
254
255
256
257
258
259
260
261
262
263
264
265
266
267
268
269
270
271
272
273
274
275
276
277
278
279
280
281
282
283
284
285
286
287
288
289
290
291
292
293
294
295
296
297
298
299
300
301
302
303
304
305
306
307
308
309
310
311
312
313
314
315
316
317
318
319
320
321
322
323
324
325
326
327
328
329
330
331
332
333
334
335
336
337
338
339
340
341
342
343
344
345
346
347
348
349
350
351
352
353
354
355
356
357
358
359
360
361
362
363
364
365
366
367
368
369
370
371
372
373
374
375
376
377
378
379
380
381
382
383
384
385
386
387
388
389
390
391
392
393
394
395
396
397
398
399
400
401
402
403
404
405
406
407
408
409
410
411
412
413
414
415
416
417
418
419
420
421
422
423
424
425
426
427
428
429
430
431
432
433
434
435
436
437
438
439
440
441
442
443
444
445
446
447
448
449
450
451
452
453
454
455
456
457
458
459
460
461
462
463
464
465
466
467
468
469
470
471
472
473
474
475
476
477
478
479
480
481
482
483
484
485
486
487
488
489
490
491
492
493
494
495
496
497
498
499
500
501
502
503
504
505
506
507
508
509
510
511
512
513
514
515
516
517
518
519
520
521
522
523
524
525
526
527
528
529
530
531
532
533
534
535
536
537
538
539
540
541
542
543
544
545
546
547
548
549
550
551
552
553
554
555
556
557
558
559
560
561
562
563
564
565
566
567
568
569
570
571
572
573
574
575
576
577
578
579
580
581
582
583
584
585
586
587
588
589
590
591
592
593
594
595
596
597
598
599
600
601
602
603
604
605
606
607
608
609
610
611
612
613
614
615
616
617
618
619
620
621
622
623
624
625
626
627
628
629
630
631
632
633
634
635
636
637
638
639
640
641
642
643
644
645
646
647
648
649
650
651
652
653
654
655
656
657
658
659
660
661
662
663
664
665
666
667
668
669
670
671
672
673
674
675
676
677
678
679
680
681
682
683
684
685
686
687
688
689
690
691
692
693
694
695
696
697
698
699
700
701
702
703
704
705
706
707
708
709
710
711
712
713
714
715
716
717
718
719
720
721
722
723
724
725
726
727
728
729
730
731
732
733
734
735
736
737
738
739
740
741
742
743
744
745
746
747
748
749
750
751
752
753
754
755
756
757
758
759
760
761
762
763
764
765
766
767
768
769
770
771
772
773
774
775
776
777
778
779
780
781
782
783
784
785
786
787
788
789
790
791
792
793
794
795
796
797
798
799
800
801
802
803
804
805
806
807
808
809
810
811
812
813
814
815
816
817
818
819
820
821
822
823
824
825
826
827
828
829
830
831
832
833
834
835
836
837
838
839
840
841
842
843
844
845
846
847
848
849
850
851
852
853
854
855
856
857
858
859
860
861
862
863
864
865
866
867
868
869
870
871
872
873
874
875
876
877
878
879
880
881
882
883
884
885
886
887
888
889
890
891
892
893
894
895
896
897
898
899
900
901
902
903
904
905
906
907
908
909
910
911
912
913
914
915
916
917
918
919
920
921
922
923
924
925
926
927
928
929
930
931
932
933
934
935
936
937
938
939
940
941
942
943
944
945
946
947
948
949
950
951
952
953
954
955
956
957
958
959
960
961
962
963
964
965
966
967
968
969
970
971
972
973
974
975
976
977
978
979
980
981
982
983
984
985
986
987
988
989
990
991
992
993
994
995
996
997
998
999
1000
1001
1002
1003
1004
1005
1006
1007
1008
1009
1010
1011
1012
1013
1014
1015
1016
1017
1018
1019
1020
1021
1022
1023
1024
1025
1026
1027
1028
1029
1030
1031
1032
1033
1034
1035
1036
1037
1038
1039
1040
1041
1042
1043
1044
1045
1046
1047
1048
1049
1050
1051
1052
1053
1054
1055
1056
1057
1058
1059
1060
1061
1062
1063
1064
1065
1066
1067
1068
1069
1070
1071
1072
1073
1074
1075
1076
1077
1078
1079
1080
1081
1082
1083
1084
1085
1086
1087
1088
1089
1090
1091
1092
1093
1094
1095
1096
1097
1098
1099
1100
1101
1102
1103
1104
1105
1106
1107
1108
1109
1110
1111
1112
1113
1114
1115
1116
1117
1118
1119
1120
1121
1122
1123
1124
1125
1126
1127
1128
1129
1130
1131
1132
1133
1134
1135
1136
1137
1138
1139
1140
1141
1142
1143
1144
1145
1146
1147
1148
1149
1150
1151
1152
1153
1154
1155
1156
1157
1158
1159
1160
1161
1162
1163
1164
1165
1166
1167
1168
1169
1170
1171
1172
1173
1174
1175
1176
1177
1178
1179
1180
1181
1182
1183
1184
1185
1186
1187
1188
1189
1190
1191
1192
1193
1194
1195
1196
1197
1198
1199
1200
1201
1202
1203
1204
1205
1206
1207
1208
1209
1210
1211
1212
1213
1214
1215
1216
1217
1218
1219
1220
1221
1222
1223
1224
1225
1226
1227
1228
1229
1230
1231
1232
1233
1234
1235
1236
1237
1238
1239
1240
1241
1242
1243
1244
1245
1246
1247
1248
1249

VECTORS point_vec float
0 1 2
0 1 2
0 1 2
0 1 2
0 1 2
0 1 2
0 1 2
0 1 2
0 1 2
0 1 2
0 1 2
0 1 2
0 1 2
0 1 2
0 1 2
0 1 2
0 1 2
0 1 2
0 1 2
0 1 2
0 1 2
0 1 2
0 1 2
0 1 2
0 1 2
0 1 2
0 1 2
0 1 2
0 1 2
0 1 2
0 1 2
0 1 2
0 1 2
0 1 2
0 1 2
0 1 2
0 1 2
0 1 2
0 1 2
0 1 2
0 1 2
0 1 2
0 1 2
0 1 2
0 1 2
0 1 2
0 1 2
0 1 2
0 1 2
0 1 2
0 1 2
0 1 2
0 1 2
0 1 2
0 1 2
0 1 2
0 1 2
0 1 2
0 1 2
0 1 2
0 1 2
0 1 2
0 1 2
0 1 2
0 1 2
0 1 2
0 1 2
0 1 2
0 1 2
0 1 2
0 1 2
0 1 2
0 1 2
0 1 2
0 1 2
0 1 2
0 1 2
0 1 2
0 1 2
0 1 2
0 1 2
0 1 2
0 1 2
0 1 2
0 1 2
0 1 2
0 1 2
0 1 2
0 1 2
0 1 2
0 1 2
0 1 2
0 1 2
0 1 2
0 1 2
0 1 2
0 1 2
0 1 2
0 1 2
0 1 2
0 1 2
0 1 2
0 1 2
0 1 2
0 1 2
0 1 2
0 1 2
0 1 2
0 1 2
0 1 2
0 1 2
0 1 2
0 1 2
0 1 2
0 1 2
0 1 2
0 1 2
0 1 2
0 1 2
0 1 2
0 1 2
0 1 2
0 1 2
0 1 2
0 1 2
0 1 2
0 1 2
0 1 2
0 1 2
0 1 2
0 1 2
0 1 2
0 1 2
0 1 2
0 1 2
0 1 2
0 1 2
0 1 2
0 1 2
0 1 2
0 1 2
0 1 2
0 1 2
0 1 2
0 1 2
0 1 2
0 1 2
0 1 2
0 1 2
0 1 2
0 1 2
0 1 2
0 1 2
0 1 2
0 1 2
0 1 2
0 1 2
0 1 2
0 1 2
0 1 2
0 1 2
0 1 2
0 1 2
0 1 2
0 1 2
0 1 2
0 1 2
0 1 2
0 1 2
0 1 2
0 1 2
0 1 2
0 1 2
0 1 2
0 1 2
0 1 2
0 1 2
0 1 2
0 1 2
0 1 2
0 1 2
0 1 2
0 1 2
0 1 2
0 1 2
0 1 2
0 1 2
0 1 2
0 1 2
0 1 2
0 1 2
0 1 2
0 1 2
0 1 2
0 1 2
0 1 2
0 1 2
0 1 2
0 1 2
0 1 2
0 1 2
0 1 2
0 1 2
0 1 2
0 1 2
0 1 2
0 1 2
0 1 2
0 1 2
0 1 2
0 1 2
0 1 2
0 1 2
0 1 2
0 1 2
0 1 2
0 1 2
0 1 2
0 1 2
0 1 2
0 1 2
0 1 2
0 1 2
0 1 2
0 1 2
0 1 2
0 1 2
0 1 2
0 1 2
0 1 2
0 1 2
0 1 2
0 1 2
0 1 2
0 1 2
0 1 2
0 1 2
0 1 2
0 1 2
0 1 2
0 1 2
0 1 2
0 1 2
0 1 2
0 1 2
0 1 2
0 1 2
0 1 2
0 1 2
0 1 2
0 1 2
0 1 2
0 1 2
0 1 2
0 1 2
0 1 2
0 1 2
0 1 2
0 1 2
0 1 2
0 1 2
0 1 2
0 1 2
0 1 2
0 1 2
0 1 2
0 1 2
0 1 2
0 1 2
0 1 2
0 1 2
0 1 2
0 1 2
0 1 2
0 1 2
0 1 2
0 1 2
0 1 2
0 1 2
0 1 2
0 1 2
0 1 2
0 1 2
0 1 2
0 1 2
0 1 2
0 1 2
0 1 2
0 1 2
0 1 2
0 1 2
0 1 2
0 1 2
0 1 2
0 1 2
0 1 2
0 1 2
0 1 2
0 1 2
0 1 2
0 1 2
0 1 2
0 1 2
0 1 2
0 1 2
0 1 2
0 1 2
0 1 2
0 1 2
0 1 2
0 1 2
0 1 2
0 1 2
0 1 2
0 1 2
0 1 2
0 1 2
0 1 2
0 1 2
0 1 2
0 1 2
0 1 2
0 1 2
0 1 2
0 1 2
0 1 2
0 1 2
0 1 2
0 1 2
0 1 2
0 1 2
0 1 2
0 1 2
0 1 2
0 1 2
0 1 2
0 1 2
0 1 2
0 1 2
0 1 2
0 1 2
0 1 2
0 1 2
0 1 2
0 1 2
0 1 2
0 1 2
0 1 2
0 1 2
0 1 2
0 1 2
0 1 2
0 1 2
0 1 2
0 1 2
0 1 2
0 1 2
0 1 2
0 1 2
0 1 2
0 1 2
0 1 2
0 1 2
0 1 2
0 1 2
0 1 2
0 1 2
0 1 2
0 1 2
0 1 2
0 1 2
0 1 2
0 1 2
0 1 2
0 1 2
0 1 2
0 1 2
0 1 2
0 1 2
0 1 2
0 1 2
0 1 2
0 1 2
0 1 2
0 1 2
0 1 2
0 1 2
0 1 2
0 1 2
0 1 2
0 1 2
0 1 2
0 1 2
0 1 2
0 1 2
0 1 2
0 1 2
0 1 2
0 1 2
0 1 2
0 1 2
0 1 2
0 1 2
0 1 2
0 1 2
0 1 2
0 1 2
0 1 2
0 1 2
0 1 2
0 1 2
0 1 2
0 1 2
0 1 2
0 1 2
0 1 2
0 1 2
0 1 2
0 1 2
0 1 2
0 1 2
0 1 2
0 1 2
0 1 2
0 1 2
0 1 2
0 1 2
0 1 2
0 1 2
0 1 2
0 1 2
0 1 2
0 1 2
0 1 2
0 1 2
0 1 2
0 1 2
0 1 2
0 1 2
0 1 2
0 1 2
0 1 2
0 1 2
0 1 2
0 1 2
0 1 2
0 1 2
0 1 2
0 1 2
0 1 2
0 1 2
0 1 2
0 1 2
0 1 2
0 1 2
0 1 2
0 1 2
0 1 2
0 1 2
0 1 2
0 1 2
0 1 2
0 1 2
0 1 2
0 1 2
0 1 2
0 1 2
0 1 2
0 1 2
0 1 2
0 1 2
0 1 2
0 1 2
0 1 2
0 1 2
0 1 2
0 1 2
0 1 2
0 1 2
0 1 2
0 1 2
0 1 2
0 1 2
0 1 2
0 1 2
0 1 2
0 1 2
0 1 2
0 1 2
0 1 2
0 1 2
0 1 2
0 1 2
0 1 2
0 1 2
0 1 2
0 1 2
0 1 2
0 1 2
0 1 2
0 1 2
0 1 2
0 1 2
0 1 2
0 1 2
0 1 2
0 1 2
0 1 2
0 1 2
0 1 2
0 1 2
0 1 2
0 1 2
0 1 2
0 1 2
0 1 2
0 1 2
0 1 2
0 1 2
0 1 2
0 1 2
0 1 2
0 1 2
0 1 2
0 1 2
0 1 2
0 1 2
0 1 2
0 1 2
0 1 2
0 1 2
0 1 2
0 1 2
0 1 2
0 1 2
0 1 2
0 1 2
0 1 2
0 1 2
0 1 2
0 1 2
0 1 2
0 1 2
0 1 2
0 1 2
0 1 2
0 1 2
0 1 2
0 1 2
0 1 2
0 1 2
0 1 2
0 1 2
0 1 2
0 1 2
0 1 2
0 1 2
0 1 2
0 1 2
0 1 2
0 1 2
0 1 2
0 1 2
0 1 2
0 1 2
0 1 2
0 1 2
0 1 2
0 1 2
0 1 2
0 1 2
0 1 2
0 1 2
0 1 2
0 1 2
0 1 2
0 1 2
0 1 2
0 1 2
0 1 2
0 1 2
0 1 2
0 1 2
0 1 2
0 1 2
0 1 2
0 1 2
0 1 2
0 1 2
0 1 2
0 1 2
0 1 2
0 1 2
0 1 2
0 1 2
0 1 2
0 1 2
0 1 2
0 1 2
0 1 2
0 1 2
0 1 2
0 1 2
0 1 2
0 1 2
0 1 2
0 1 2
0 1 2
0 1 2
0 1 2
0 1 2
0 1 2
0 1 2
0 1 2
0 1 2
0 1 2
0 1 2
0 1 2
0 1 2
0 1 2
0 1 2
0 1 2
0 1 2
0 1 2
0 1 2
0 1 2
0 1 2
0 1 2
0 1 2
0 1 2
0 1 2
0 1 2
0 1 2
0 1 2
0 1 2
0 1 2
0 1 2
0 1 2
0 1 2
0 1 2
0 1 2
0 1 2
0 1 2
0 1 2
0 1 2
0 1 2
0 1 2
0 1 2
0 1 2
0 1 2
0 1 2
0 1 2
0 1 2
0 1 2
0 1 2
0 1 2
0 1 2
0 1 2
0 1 2
0 1 2
0 1 2
0 1 2
0 1 2
0 1 2
0 1 2
0 1 2
0 1 2
0 1 2
0 1 2
0 1 2
0 1 2
0 1 2
0 1 2
0 1 2
0 1 2
0 1 2
0 1 2
0 1 2
0 1 2
0 1 2
0 1 2
0 1 2
0 1 2
0 1 2
0 1 2
0 1 2
0 1 2
0 1 2
0 1 2
0 1 2
0 1 2
0 1 2
0 1 2
0 1 2
0 1 2
0 1 2
0 1 2
0 1 2
0 1 2
0 1 2
0 1 2
0 1 2
0 1 2
0 1 2
0 1 2
0 1 2
0 1 2
0 1 2
0 1 2
0 1 2
0 1 2
0 1 2
0 1 2
0 1 2
0 1 2
0 1 2
0 1 2
0 1 2
0 1 2
0 1 2
0 1 2
0 1 2
0 1 2
0 1 2
0 1 2
0 1 2
0 1 2
0 1 2
0 1 2
0 1 2
0 1 2
0 1 2
0 1 2
0 1 2
0 1 2
0 1 2
0 1 2
0 1 2
0 1 2
0 1 2
0 1 2
0 1 2
0 1 2
0 1 2
0 1 2
0 1 2
0 1 2
0 1 2
0 1 2
0 1 2
0 1 2
0 1 2
0 1 2
0 1 2
0 1 2
0 1 2
0 1 2
0 1 2
0 1 2
0 1 2
0 1 2
0 1 2
0 1 2
0 1 2
0 1 2
0 1 2
0 1 2
0 1 2
0 1 2
0 1 2
0 1 2
0 1 2
0 1 2
0 1 2
0 1 2
0 1 2
0 1 2
0 1 2
0 1 2
0 1 2
0 1 2
0 1 2
0 1 2
0 1 2
0 1 2
0 1 2
0 1 2
0 1 2
0 1 2
0 1 2
0 1 2
0 1 2
0 1 2
0 1 2
0 1 2
0 1 2
0 1 2
0 1 2
0 1 2
0 1 2
0 1 2
0 1 2
0 1 2
0 1 2
0 1 2
0 1 2
0 1 2
0 1 2
0 1 2
0 1 2
0 1 2
0 1 2
0 1 2
0 1 2
0 1 2
0 1 2
0 1 2
0 1 2
0 1 2
0 1 2
0 1 2
0 1 2
0 1 2
0 1 2
0 1 2
0 1 2
0 1 2
0 1 2
0 1 2
0 1 2
0 1 2
0 1 2
0 1 2
0 1 2
0 1 2
0 1 2
0 1 2
0 1 2
0 1 2
0 1 2
0 1 2
0 1 2
0 1 2
0 1 2
0 1 2
0 1 2
0 1 2
0 1 2
0 1 2
0 1 2
0 1 2
0 1 2
0 1 2
0 1 2
0 1 2
0 1 2
0 1 2
0 1 2
0 1 2
0 1 2
0 1 2
0 1 2
0 1 2
0 1 2
0 1 2
0 1 2
0 1 2
0 1 2
0 1 2
0 1 2
0 1 2
0 1 2
0 1 2
0 1 2
0 1 2
0 1 2
0 1 2
0 1 2
0 1 2
0 1 2
0 1 2
0 1 2
0 1 2
0 1 2
0 1 2
0 1 2
0 1 2
0 1 2
0 1 2
0 1 2
0 1 2
0 1 2
0 1 2
0 1 2
0 1 2
0 1 2
0 1 2
0 1 2
0 1 2
0 1 2
0 1 2
0 1 2
0 1 2
0 1 2
0 1 2
0 1 2
0 1 2
0 1 2
0 1 2
0 1 2
0 1 2
0 1 2
0 1 2
0 1 2
0 1 2
0 1 2
0 1 2
0 1 2
0 1 2
0 1 2
0 1 2
0 1 2
0 1 2
0 1 2
0 1 2
0 1 2
0 1 2
0 1 2
0 1 2
0 1 2
0 1 2
0 1 2
0 1 2
0 1 2
0 1 2
0 1 2
0 1 2
0 1 2
0 1 2
0 1 2
0 1 2
0 1 2
0 1 2
0 1 2
0 1 2
0 1 2
0 1 2
0 1 2
0 1 2
0 1 2
0 1 2
0 1 2
0 1 2
0 1 2
0 1 2
0 1 2
0 1 2
0 1 2
0 1 2
0 1 2
0 1 2
0 1 2
0 1 2
0 1 2
0 1 2
0 1 2
0 1 2
0 1 2
0 1 2
0 1 2
0 1 2
0 1 2
0 1 2
0 1 2
0 1 2
0 1 2
0 1 2
0 1 2
0 1 2
0 1 2
0 1 2
0 1 2
0 1 2
0 1 2
0 1 2
0 1 2
0 1 2
0 1 2
0 1 2
0 1 2
0 1 2
0 1 2
0 1 2
0 1 2
0 1 2
0 1 2
0 1 2
0 1 2
0 1 2
0 1 2
0 1 2
0 1 2
0 1 2
0 1 2
0 1 2
0 1 2
0 1 2
0 1 2
0 1 2
0 1 2
0 1 2
0 1 2
0 1 2
0 1 2
0 1 2
0 1 2
0 1 2
0 1 2
0 1 2
0 1 2
0 1 2
0 1 2
0 1 2
0 1 2
0 1 2
0 1 2
0 1 2
0 1 2
0 1 2
0 1 2
0 1 2
0 1 2
0 1 2
0 1 2
0 1 2
0 1 2
0 1 2
0 1 2
0 1 2
0 1 2
0 1 2
0 1 2
0 1 2
0 1 2
0 1 2
0 1 2
0 1 2
0 1 2
0 1 2
0 1 2
0 1 2
0 1 2
0 1 2
0 1 2
0 1 2
0 1 2
0 1 2
0 1 2
0 1 2
0 1 2
0 1 2
0 1 2
0 1 2
0 1 2
0 1 2
0 1 2
0 1 2
0 1 2
0 1 2
0 1 2
0 1 2
0 1 2
0 1 2
0 1 2
0 1 2
0 1 2
0 1 2
0 1 2
0 1 2
0 1 2
0 1 2
0 1 2
0 1 2
0 1 2
0 1 2
0 1 2
0 1 2
0 1 2
0 1 2
0 1 2
0 1 2
0 1 2
0 1 2
0 1 2
0 1 2
0 1 2
0 1 2
0 1 2
0 1 2
0 1 2
0 1 2
0 1 2
0 1 2
0 1 2
0 1 2
0 1 2
0 1 2
0 1 2
0 1 2
0 1 2
0 1 2
0 1 2
0 1 2
0 1 2
0 1 2
0 1 2
0 1 2
0 1 2
0 1 2
0 1 2
0 1 2
0 1 2
0 1 2
0 1 2
0 1 2
0 1 2
0 1 2
0 1 2
0 1 2
0 1 2
0 1 2
0 1 2
0 1 2
0 1 2
0 1 2
0 1 2
0 1 2
0 1 2
0 1 2
0 1 2
0 1 2
0 1 2
0 1 2
0 1 2
0 1 2
0 1 2
0 1 2
0 1 2
0 1 2
0 1 2
0 1 2
0 1 2
0 1 2
0 1 2
0 1 2
0 1 2
0 1 2
0 1 2
0 1 2
0 1 2
0 1 2
0 1 2
0 1 2
0 1 2
0 1 2
0 1 2
0 1 2
0 1 2
0 1 2
0 1 2
0 1 2
0 1 2
0 1 2
0 1 2
0 1 2
0 1 2
0 1 2
0 1 2
0 1 2
0 1 2
0 1 2
0 1 2
0 1 2
0 1 2
0 1 2
0 1 2
0 1 2
0 1 2
0 1 2
0 1 2
0 1 2
0 1 2
0 1 2
0 1 2
0 1 2
0 1 2
0 1 2
0 1 2
0 1 2
0 1 2
0 1 2
0 1 2
0 1 2
0 1 2
0 1 2
0 1 2
0 1 2
0 1 2
0 1 2
0 1 2
0 1 2
0 1 2
0 1 2
0 1 2
0 1 2
0 1 2
0 1 2
0 1 2
0 1 2
0 1 2
0 1 2
0 1 2
0 1 2
0 1 2
0 1 2
0 1 2
0 1 2
0 1 2
0 1 2
0 1 2
0 1 2
0 1 2
0 1 2
0 1 2
0 1 2
0 1 2
0 1 2
0 1 2
0 1 2
0 1 2
0 1 2
0 1 2
0 1 2
0 1 2
0 1 2
0 1 2
0 1 2
0 1 2
0 1 2
0 1 2

CELL_DATA 576
SCALARS elem_var float 1
LOOKUP_TABLE default 
0
1
2
3
4
5
6
7
8
9
10
11
12
13
14
15
16
17
18
19
20
21
22
23
24
25
26
27
28
29
30
31
32
33
34
35
36
37
38
39
40
41
42
43
44
45
46
47
48
49
50
51
52
53
54
55
56
57
58
59
60
61
62
63
64
65
66
67
68
69
70
71
72
73
74
75
76
77
78
79
80
81
82
83
84
85
86
87
88
89
90
91
92
93
94
95
96
97
98
99
100
101
102
103
104
105
106
107
108
109
110
111
112
113
114
115
116
117
118
119
120
121
122
123
124
125
126
127
128
129
130
131
132
133
134
135
136
137
138
139
140
141
142
143
144
145
146
147
148
149
150
151
152
153
154
155
156
157
158
159
160
161
162
163
164
165
166
167
168
169
170
171
172
173
174
175
176
177
178
179
180
181
182
183
184
185
186
187
188
189
190
191
192
193
194
195
196
197
198
199
200
201
202
203
204
205
206
207
208
209
210
211
212
213
214
215
216
217
218
219
220
221
222
223
224
225
226
227
228
229
230
231
232
233
234
235
236
237
238
239
240
241
242
243
244
245
246
247
248
249
250
251
252
253
254
255
256
257
258
259
260
261
262
263
264
265
266
267
268
269
270
271
272
273
274
275
276
277
278
279
280
281
282
283
284
285
286
287
288
289
290
291
292
293
294
295
296
297
298
299
300
301
302
303
304
305
306
307
308
309
310
311
312
313
314
315
316
317
318
319
320
321
322
323
324
325
326
327
328
329
330
331
332
333
334
335
336
337
338
339
340
341
342
343
344
345
346
347
348
349
350
351
352
353
354
355
356
357
358
359
360
361
362
363
364
365
366
367
368
369
370
371
372
373
374
375
376
377
378
379
380
381
382
383
384
385
386
387
388
389
390
391
392
393
394
395
396
397
398
399
400
401
402
403
404
405
406
407
408
409
410
411
412
413
414
415
416
417
418
419
420
421
422
423
424
425
426
427
428
429
430
431
432
433
434
435
436
437
438
439
440
441
442
443
444
445
446
447
448
449
450
451
452
453
454
455
456
457
458
459
460
461
462
463
464
465
466
467
468
469
470
471
472
473
474
475
476
477
478
479
480
481
482
483
484
485
486
487
488
489
490
491
492
493
494
495
496
497
498
499
500
501
502
503
504
505
506
507
508
509
510
511
512
513
514
515
516
517
518
519
520
521
522
523
524
525
526
527
528
529
530
531
532
533
534
535
536
537
538
539
540
541
542
543
544
545
546
547
548
549
550
551
552
553
554
555
556
557
558
559
560
561
562
563
564
565
566
567
568
569
570
571
572
573
574
575

SCALARS elem_var2 float 1
LOOKUP_TABLE default 
0
18446744073709551615
18446744073709551614
18446744073709551613
18446744073709551612
18446744073709551611
18446744073709551610
18446744073709551609
18446744073709551608
18446744073709551607
18446744073709551606
18446744073709551605
18446744073709551604
18446744073709551603
18446744073709551602
18446744073709551601
18446744073709551600
18446744073709551599
18446744073709551598
18446744073709551597
18446744073709551596
18446744073709551595
18446744073709551594
18446744073709551593
18446744073709551592
18446744073709551591
18446744073709551590
18446744073709551589
18446744073709551588
18446744073709551587
18446744073709551586
18446744073709551585
18446744073709551584
18446744073709551583
18446744073709551582
18446744073709551581
18446744073709551580
18446744073709551579
18446744073709551578
18446744073709551577
18446744073709551576
18446744073709551575
18446744073709551574
18446744073709551573
18446744073709551572
18446744073709551571
18446744073709551570
18446744073709551569
18446744073709551568
18446744073709551567
18446744073709551566
18446744073709551565
18446744073709551564
18446744073709551563
18446744073709551562
18446744073709551561
18446744073709551560
18446744073709551559
18446744073709551558
18446744073709551557
18446744073709551556
18446744073709551555
18446744073709551554
18446744073709551553
18446744073709551552
18446744073709551551
18446744073709551550
18446744073709551549
18446744073709551548
18446744073709551547
18446744073709551546
18446744073709551545
18446744073709551544
18446744073709551543
18446744073709551542
18446744073709551541
18446744073709551540
18446744073709551539
18446744073709551538
18446744073709551537
18446744073709551536
18446744073709551535
18446744073709551534
18446744073709551533
18446744073709551532
18446744073709551531
18446744073709551530
18446744073709551529
18446744073709551528
18446744073709551527
18446744073709551526
18446744073709551525
18446744073709551524
18446744073709551523
18446744073709551522
18446744073709551521
18446744073709551520
18446744073709551519
18446744073709551518
18446744073709551517
18446744073709551516
18446744073709551515
18446744073709551514
18446744073709551513
18446744073709551512
18446744073709551511
18446744073709551510
18446744073709551509
18446744073709551508
18446744073709551507
18446744073709551506
18446744073709551505
18446744073709551504
18446744073709551503
18446744073709551502
18446744073709551501
18446744073709551500
18446744073709551499
18446744073709551498
18446744073709551497
18446744073709551496
18446744073709551495
18446744073709551494
18446744073709551493
18446744073709551492
18446744073709551491
18446744073709551490
18446744073709551489
18446744073709551488
18446744073709551487
18446744073709551486
18446744073709551485
18446744073709551484
18446744073709551483
18446744073709551482
18446744073709551481
18446744073709551480
18446744073709551479
18446744073709551478
18446744073709551477
18446744073709551476
18446744073709551475
18446744073709551474
18446744073709551473
18446744073709551472
18446744073709551471
18446744073709551470
18446744073709551469
18446744073709551468
18446744073709551467
18446744073709551466
18446744073709551465
18446744073709551464
18446744073709551463
18446744073709551462
18446744073709551461
18446744073709551460
18446744073709551459
18446744073709551458
18446744073709551457
18446744073709551456
18446744073709551455
18446744073709551454
18446744073709551453
18446744073709551452
18446744073709551451
18446744073709551450
18446744073709551449
18446744073709551448
18446744073709551447
18446744073709551446
18446744073709551445
18446744073709551444
18446744073709551443
18446744073709551442
18446744073709551441
18446744073709551440
18446744073709551439
18446744073709551438
18446744073709551437
18446744073709551436
18446744073709551435
18446744073709551434
18446744073709551433
18446744073709551432
18446744073709551431
18446744073709551430
18446744073709551429
18446744073709551428
18446744073709551427
18446744073709551426
18446744073709551425
18446744073709551424
18446744073709551423
18446744073709551422
18446744073709551421
18446744073709551420
18446744073709551419
18446744073709551418
18446744073709551417
18446744073709551416
18446744073709551415
18446744073709551414
18446744073709551413
18446744073709551412
18446744073709551411
18446744073709551410
18446744073709551409
18446744073709551408
18446744073709551407
18446744073709551406
18446744073709551405
18446744073709551404
18446744073709551403
18446744073709551402
18446744073709551401
18446744073709551400
18446744073709551399
18446744073709551398
18446744073709551397
18446744073709551396
18446744073709551395
18446744073709551394
18446744073709551393
18446744073709551392
18446744073709551391
18446744073709551390
18446744073709551389
18446744073709551388
18446744073709551387
18446744073709551386
18446744073709551385
18446744073709551384
18446744073709551383
18446744073709551382
18446744073709551381
18446744073709551380