# vtk DataFile Version 2.0
Mesh for Fierro
ASCII
DATASET UNSTRUCTURED_GRID

POINTS 676 float
0 0 0 
0.583333 0 0 
1.16667 0 0 
1.75 0 0 
2.33333 0 0 
2.91667 0 0 
3.5 0 0 
4.08333 0 0 
4.66667 0 0 
5.25 0 0 
5.83333 0 0 
6.41667 0 0 
7 0 0 
0 0.25 0 
0.583333 0.25 0 
1.16667 0.25 0 
1.75 0.25 0 
2.33333 0.25 0 
2.91667 0.25 0 
3.5 0.25 0 
4.08333 0.25 0 
4.66667 0.25 0 
5.25 0.25 0 
5.83333 0.25 0 
6.41667 0.25 0 
7 0.25 0 
0 0.5 0 
0.583333 0.5 0 
1.16667 0.5 0 
1.75 0.5 0 
2.33333 0.5 0 
2.91667 0.5 0 
3.5 0.5 0 
4.08333 0.5 0 
4.66667 0.5 0 
5.25 0.5 0 
5.83333 0.5 0 
6.41667 0.5 0 
7 0.5 0 
0 0.75 0 
0.583333 0.75 0 
1.16667 0.75 0 
1.75 0.75 0 
2.33333 0.75 0 
2.91667 0.75 0 
3.5 0.75 0 
4.08333 0.75 0 
4.66667 0.75 0 
5.25 0.75 0 
5.83333 0.75 0 
6.41667 0.75 0 
7 0.75 0 
0 1 0 
0.583333 1 0 
1.16667 1 0 
1.75 1 0 
2.33333 1 0 
2.91667 1 0 
3.5 1 0 
4.08333 1 0 
4.66667 1 0 
5.25 1 0 
5.83333 1 0 
6.41667 1 0 
7 1 0 
0 1.25 0 
0.583333 1.25 0 
1.16667 1.25 0 
1.75 1.25 0 
2.33333 1.25 0 
2.91667 1.25 0 
3.5 1.25 0 
4.08333 1.25 0 
4.66667 1.25 0 
5.25 1.25 0 
5.83333 1.25 0 
6.41667 1.25 0 
7 1.25 0 
0 1.5 0 
0.583333 1.5 0 
1.16667 1.5 0 
1.75 1.5 0 
2.33333 1.5 0 
2.91667 1.5 0 
3.5 1.5 0 
4.08333 1.5 0 
4.66667 1.5 0 
5.25 1.5 0 
5.83333 1.5 0 
6.41667 1.5 0 
7 1.5 0 
0 1.75 0 
0.583333 1.75 0 
1.16667 1.75 0 
1.75 1.75 0 
2.33333 1.75 0 
2.91667 1.75 0 
3.5 1.75 0 
4.08333 1.75 0 
4.66667 1.75 0 
5.25 1.75 0 
5.83333 1.75 0 
6.41667 1.75 0 
7 1.75 0 
0 2 0 
0.583333 2 0 
1.16667 2 0 
1.75 2 0 
2.33333 2 0 
2.91667 2 0 
3.5 2 0 
4.08333 2 0 
4.66667 2 0 
5.25 2 0 
5.83333 2 0 
6.41667 2 0 
7 2 0 
0 2.25 0 
0.583333 2.25 0 
1.16667 2.25 0 
1.75 2.25 0 
2.33333 2.25 0 
2.91667 2.25 0 
3.5 2.25 0 
4.08333 2.25 0 
4.66667 2.25 0 
5.25 2.25 0 
5.83333 2.25 0 
6.41667 2.25 0 
7 2.25 0 
0 2.5 0 
0.583333 2.5 0 
1.16667 2.5 0 
1.75 2.5 0 
2.33333 2.5 0 
2.91667 2.5 0 
3.5 2.5 0 
4.08333 2.5 0 
4.66667 2.5 0 
5.25 2.5 0 
5.83333 2.5 0 
6.41667 2.5 0 
7 2.5 0 
0 2.75 0 
0.583333 2.75 0 
1.16667 2.75 0 
1.75 2.75 0 
2.33333 2.75 0 
2.91667 2.75 0 
3.5 2.75 0 
4.08333 2.75 0 
4.66667 2.75 0 
5.25 2.75 0 
5.83333 2.75 0 
6.41667 2.75 0 
7 2.75 0 
0 3 0 
0.583333 3 0 
1.16667 3 0 
1.75 3 0 
2.33333 3 0 
2.91667 3 0 
3.5 3 0 
4.08333 3 0 
4.66667 3 0 
5.25 3 0 
5.83333 3 0 
6.41667 3 0 
7 3 0 
0 0 0.0333333 
0.583333 0 0.0333333 
1.16667 0 0.0333333 
1.75 0 0.0333333 
2.33333 0 0.0333333 
2.91667 0 0.0333333 
3.5 0 0.0333333 
4.08333 0 0.0333333 
4.66667 0 0.0333333 
5.25 0 0.0333333 
5.83333 0 0.0333333 
6.41667 0 0.0333333 
7 0 0.0333333 
0 0.25 0.0333333 
0.583333 0.25 0.0333333 
1.16667 0.25 0.0333333 
1.75 0.25 0.0333333 
2.33333 0.25 0.0333333 
2.91667 0.25 0.0333333 
3.5 0.25 0.0333333 
4.08333 0.25 0.0333333 
4.66667 0.25 0.0333333 
5.25 0.25 0.0333333 
5.83333 0.25 0.0333333 
6.41667 0.25 0.0333333 
7 0.25 0.0333333 
0 0.5 0.0333333 
0.583333 0.5 0.0333333 
1.16667 0.5 0.0333333 
1.75 0.5 0.0333333 
2.33333 0.5 0.0333333 
2.91667 0.5 0.0333333 
3.5 0.5 0.0333333 
4.08333 0.5 0.0333333 
4.66667 0.5 0.0333333 
5.25 0.5 0.0333333 
5.83333 0.5 0.0333333 
6.41667 0.5 0.0333333 
7 0.5 0.0333333 
0 0.75 0.0333333 
0.583333 0.75 0.0333333 
1.16667 0.75 0.0333333 
1.75 0.75 0.0333333 
2.33333 0.75 0.0333333 
2.91667 0.75 0.0333333 
3.5 0.75 0.0333333 
4.08333 0.75 0.0333333 
4.66667 0.75 0.0333333 
5.25 0.75 0.0333333 
5.83333 0.75 0.0333333 
6.41667 0.75 0.0333333 
7 0.75 0.0333333 
0 1 0.0333333 
0.583333 1 0.0333333 
1.16667 1 0.0333333 
1.75 1 0.0333333 
2.33333 1 0.0333333 
2.91667 1 0.0333333 
3.5 1 0.0333333 
4.08333 1 0.0333333 
4.66667 1 0.0333333 
5.25 1 0.0333333 
5.83333 1 0.0333333 
6.41667 1 0.0333333 
7 1 0.0333333 
0 1.25 0.0333333 
0.583333 1.25 0.0333333 
1.16667 1.25 0.0333333 
1.75 1.25 0.0333333 
2.33333 1.25 0.0333333 
2.91667 1.25 0.0333333 
3.5 1.25 0.0333333 
4.08333 1.25 0.0333333 
4.66667 1.25 0.0333333 
5.25 1.25 0.0333333 
5.83333 1.25 0.0333333 
6.41667 1.25 0.0333333 
7 1.25 0.0333333 
0 1.5 0.0333333 
0.583333 1.5 0.0333333 
1.16667 1.5 0.0333333 
1.75 1.5 0.0333333 
2.33333 1.5 0.0333333 
2.91667 1.5 0.0333333 
3.5 1.5 0.0333333 
4.08333 1.5 0.0333333 
4.66667 1.5 0.0333333 
5.25 1.5 0.0333333 
5.83333 1.5 0.0333333 
6.41667 1.5 0.0333333 
7 1.5 0.0333333 
0 1.75 0.0333333 
0.583333 1.75 0.0333333 
1.16667 1.75 0.0333333 
1.75 1.75 0.0333333 
2.33333 1.75 0.0333333 
2.91667 1.75 0.0333333 
3.5 1.75 0.0333333 
4.08333 1.75 0.0333333 
4.66667 1.75 0.0333333 
5.25 1.75 0.0333333 
5.83333 1.75 0.0333333 
6.41667 1.75 0.0333333 
7 1.75 0.0333333 
0 2 0.0333333 
0.583333 2 0.0333333 
1.16667 2 0.0333333 
1.75 2 0.0333333 
2.33333 2 0.0333333 
2.91667 2 0.0333333 
3.5 2 0.0333333 
4.08333 2 0.0333333 
4.66667 2 0.0333333 
5.25 2 0.0333333 
5.83333 2 0.0333333 
6.41667 2 0.0333333 
7 2 0.0333333 
0 2.25 0.0333333 
0.583333 2.25 0.0333333 
1.16667 2.25 0.0333333 
1.75 2.25 0.0333333 
2.33333 2.25 0.0333333 
2.91667 2.25 0.0333333 
3.5 2.25 0.0333333 
4.08333 2.25 0.0333333 
4.66667 2.25 0.0333333 
5.25 2.25 0.0333333 
5.83333 2.25 0.0333333 
6.41667 2.25 0.0333333 
7 2.25 0.0333333 
0 2.5 0.0333333 
0.583333 2.5 0.0333333 
1.16667 2.5 0.0333333 
1.75 2.5 0.0333333 
2.33333 2.5 0.0333333 
2.91667 2.5 0.0333333 
3.5 2.5 0.0333333 
4.08333 2.5 0.0333333 
4.66667 2.5 0.0333333 
5.25 2.5 0.0333333 
5.83333 2.5 0.0333333 
6.41667 2.5 0.0333333 
7 2.5 0.0333333 
0 2.75 0.0333333 
0.583333 2.75 0.0333333 
1.16667 2.75 0.0333333 
1.75 2.75 0.0333333 
2.33333 2.75 0.0333333 
2.91667 2.75 0.0333333 
3.5 2.75 0.0333333 
4.08333 2.75 0.0333333 
4.66667 2.75 0.0333333 
5.25 2.75 0.0333333 
5.83333 2.75 0.0333333 
6.41667 2.75 0.0333333 
7 2.75 0.0333333 
0 3 0.0333333 
0.583333 3 0.0333333 
1.16667 3 0.0333333 
1.75 3 0.0333333 
2.33333 3 0.0333333 
2.91667 3 0.0333333 
3.5 3 0.0333333 
4.08333 3 0.0333333 
4.66667 3 0.0333333 
5.25 3 0.0333333 
5.83333 3 0.0333333 
6.41667 3 0.0333333 
7 3 0.0333333 
0 0 0.0666667 
0.583333 0 0.0666667 
1.16667 0 0.0666667 
1.75 0 0.0666667 
2.33333 0 0.0666667 
2.91667 0 0.0666667 
3.5 0 0.0666667 
4.08333 0 0.0666667 
4.66667 0 0.0666667 
5.25 0 0.0666667 
5.83333 0 0.0666667 
6.41667 0 0.0666667 
7 0 0.0666667 
0 0.25 0.0666667 
0.583333 0.25 0.0666667 
1.16667 0.25 0.0666667 
1.75 0.25 0.0666667 
2.33333 0.25 0.0666667 
2.91667 0.25 0.0666667 
3.5 0.25 0.0666667 
4.08333 0.25 0.0666667 
4.66667 0.25 0.0666667 
5.25 0.25 0.0666667 
5.83333 0.25 0.0666667 
6.41667 0.25 0.0666667 
7 0.25 0.0666667 
0 0.5 0.0666667 
0.583333 0.5 0.0666667 
1.16667 0.5 0.0666667 
1.75 0.5 0.0666667 
2.33333 0.5 0.0666667 
2.91667 0.5 0.0666667 
3.5 0.5 0.0666667 
4.08333 0.5 0.0666667 
4.66667 0.5 0.0666667 
5.25 0.5 0.0666667 
5.83333 0.5 0.0666667 
6.41667 0.5 0.0666667 
7 0.5 0.0666667 
0 0.75 0.0666667 
0.583333 0.75 0.0666667 
1.16667 0.75 0.0666667 
1.75 0.75 0.0666667 
2.33333 0.75 0.0666667 
2.91667 0.75 0.0666667 
3.5 0.75 0.0666667 
4.08333 0.75 0.0666667 
4.66667 0.75 0.0666667 
5.25 0.75 0.0666667 
5.83333 0.75 0.0666667 
6.41667 0.75 0.0666667 
7 0.75 0.0666667 
0 1 0.0666667 
0.583333 1 0.0666667 
1.16667 1 0.0666667 
1.75 1 0.0666667 
2.33333 1 0.0666667 
2.91667 1 0.0666667 
3.5 1 0.0666667 
4.08333 1 0.0666667 
4.66667 1 0.0666667 
5.25 1 0.0666667 
5.83333 1 0.0666667 
6.41667 1 0.0666667 
7 1 0.0666667 
0 1.25 0.0666667 
0.583333 1.25 0.0666667 
1.16667 1.25 0.0666667 
1.75 1.25 0.0666667 
2.33333 1.25 0.0666667 
2.91667 1.25 0.0666667 
3.5 1.25 0.0666667 
4.08333 1.25 0.0666667 
4.66667 1.25 0.0666667 
5.25 1.25 0.0666667 
5.83333 1.25 0.0666667 
6.41667 1.25 0.0666667 
7 1.25 0.0666667 
0 1.5 0.0666667 
0.583333 1.5 0.0666667 
1.16667 1.5 0.0666667 
1.75 1.5 0.0666667 
2.33333 1.5 0.0666667 
2.91667 1.5 0.0666667 
3.5 1.5 0.0666667 
4.08333 1.5 0.0666667 
4.66667 1.5 0.0666667 
5.25 1.5 0.0666667 
5.83333 1.5 0.0666667 
6.41667 1.5 0.0666667 
7 1.5 0.0666667 
0 1.75 0.0666667 
0.583333 1.75 0.0666667 
1.16667 1.75 0.0666667 
1.75 1.75 0.0666667 
2.33333 1.75 0.0666667 
2.91667 1.75 0.0666667 
3.5 1.75 0.0666667 
4.08333 1.75 0.0666667 
4.66667 1.75 0.0666667 
5.25 1.75 0.0666667 
5.83333 1.75 0.0666667 
6.41667 1.75 0.0666667 
7 1.75 0.0666667 
0 2 0.0666667 
0.583333 2 0.0666667 
1.16667 2 0.0666667 
1.75 2 0.0666667 
2.33333 2 0.0666667 
2.91667 2 0.0666667 
3.5 2 0.0666667 
4.08333 2 0.0666667 
4.66667 2 0.0666667 
5.25 2 0.0666667 
5.83333 2 0.0666667 
6.41667 2 0.0666667 
7 2 0.0666667 
0 2.25 0.0666667 
0.583333 2.25 0.0666667 
1.16667 2.25 0.0666667 
1.75 2.25 0.0666667 
2.33333 2.25 0.0666667 
2.91667 2.25 0.0666667 
3.5 2.25 0.0666667 
4.08333 2.25 0.0666667 
4.66667 2.25 0.0666667 
5.25 2.25 0.0666667 
5.83333 2.25 0.0666667 
6.41667 2.25 0.0666667 
7 2.25 0.0666667 
0 2.5 0.0666667 
0.583333 2.5 0.0666667 
1.16667 2.5 0.0666667 
1.75 2.5 0.0666667 
2.33333 2.5 0.0666667 
2.91667 2.5 0.0666667 
3.5 2.5 0.0666667 
4.08333 2.5 0.0666667 
4.66667 2.5 0.0666667 
5.25 2.5 0.0666667 
5.83333 2.5 0.0666667 
6.41667 2.5 0.0666667 
7 2.5 0.0666667 
0 2.75 0.0666667 
0.583333 2.75 0.0666667 
1.16667 2.75 0.0666667 
1.75 2.75 0.0666667 
2.33333 2.75 0.0666667 
2.91667 2.75 0.0666667 
3.5 2.75 0.0666667 
4.08333 2.75 0.0666667 
4.66667 2.75 0.0666667 
5.25 2.75 0.0666667 
5.83333 2.75 0.0666667 
6.41667 2.75 0.0666667 
7 2.75 0.0666667 
0 3 0.0666667 
0.583333 3 0.0666667 
1.16667 3 0.0666667 
1.75 3 0.0666667 
2.33333 3 0.0666667 
2.91667 3 0.0666667 
3.5 3 0.0666667 
4.08333 3 0.0666667 
4.66667 3 0.0666667 
5.25 3 0.0666667 
5.83333 3 0.0666667 
6.41667 3 0.0666667 
7 3 0.0666667 
0 0 0.1 
0.583333 0 0.1 
1.16667 0 0.1 
1.75 0 0.1 
2.33333 0 0.1 
2.91667 0 0.1 
3.5 0 0.1 
4.08333 0 0.1 
4.66667 0 0.1 
5.25 0 0.1 
5.83333 0 0.1 
6.41667 0 0.1 
7 0 0.1 
0 0.25 0.1 
0.583333 0.25 0.1 
1.16667 0.25 0.1 
1.75 0.25 0.1 
2.33333 0.25 0.1 
2.91667 0.25 0.1 
3.5 0.25 0.1 
4.08333 0.25 0.1 
4.66667 0.25 0.1 
5.25 0.25 0.1 
5.83333 0.25 0.1 
6.41667 0.25 0.1 
7 0.25 0.1 
0 0.5 0.1 
0.583333 0.5 0.1 
1.16667 0.5 0.1 
1.75 0.5 0.1 
2.33333 0.5 0.1 
2.91667 0.5 0.1 
3.5 0.5 0.1 
4.08333 0.5 0.1 
4.66667 0.5 0.1 
5.25 0.5 0.1 
5.83333 0.5 0.1 
6.41667 0.5 0.1 
7 0.5 0.1 
0 0.75 0.1 
0.583333 0.75 0.1 
1.16667 0.75 0.1 
1.75 0.75 0.1 
2.33333 0.75 0.1 
2.91667 0.75 0.1 
3.5 0.75 0.1 
4.08333 0.75 0.1 
4.66667 0.75 0.1 
5.25 0.75 0.1 
5.83333 0.75 0.1 
6.41667 0.75 0.1 
7 0.75 0.1 
0 1 0.1 
0.583333 1 0.1 
1.16667 1 0.1 
1.75 1 0.1 
2.33333 1 0.1 
2.91667 1 0.1 
3.5 1 0.1 
4.08333 1 0.1 
4.66667 1 0.1 
5.25 1 0.1 
5.83333 1 0.1 
6.41667 1 0.1 
7 1 0.1 
0 1.25 0.1 
0.583333 1.25 0.1 
1.16667 1.25 0.1 
1.75 1.25 0.1 
2.33333 1.25 0.1 
2.91667 1.25 0.1 
3.5 1.25 0.1 
4.08333 1.25 0.1 
4.66667 1.25 0.1 
5.25 1.25 0.1 
5.83333 1.25 0.1 
6.41667 1.25 0.1 
7 1.25 0.1 
0 1.5 0.1 
0.583333 1.5 0.1 
1.16667 1.5 0.1 
1.75 1.5 0.1 
2.33333 1.5 0.1 
2.91667 1.5 0.1 
3.5 1.5 0.1 
4.08333 1.5 0.1 
4.66667 1.5 0.1 
5.25 1.5 0.1 
5.83333 1.5 0.1 
6.41667 1.5 0.1 
7 1.5 0.1 
0 1.75 0.1 
0.583333 1.75 0.1 
1.16667 1.75 0.1 
1.75 1.75 0.1 
2.33333 1.75 0.1 
2.91667 1.75 0.1 
3.5 1.75 0.1 
4.08333 1.75 0.1 
4.66667 1.75 0.1 
5.25 1.75 0.1 
5.83333 1.75 0.1 
6.41667 1.75 0.1 
7 1.75 0.1 
0 2 0.1 
0.583333 2 0.1 
1.16667 2 0.1 
1.75 2 0.1 
2.33333 2 0.1 
2.91667 2 0.1 
3.5 2 0.1 
4.08333 2 0.1 
4.66667 2 0.1 
5.25 2 0.1 
5.83333 2 0.1 
6.41667 2 0.1 
7 2 0.1 
0 2.25 0.1 
0.583333 2.25 0.1 
1.16667 2.25 0.1 
1.75 2.25 0.1 
2.33333 2.25 0.1 
2.91667 2.25 0.1 
3.5 2.25 0.1 
4.08333 2.25 0.1 
4.66667 2.25 0.1 
5.25 2.25 0.1 
5.83333 2.25 0.1 
6.41667 2.25 0.1 
7 2.25 0.1 
0 2.5 0.1 
0.583333 2.5 0.1 
1.16667 2.5 0.1 
1.75 2.5 0.1 
2.33333 2.5 0.1 
2.91667 2.5 0.1 
3.5 2.5 0.1 
4.08333 2.5 0.1 
4.66667 2.5 0.1 
5.25 2.5 0.1 
5.83333 2.5 0.1 
6.41667 2.5 0.1 
7 2.5 0.1 
0 2.75 0.1 
0.583333 2.75 0.1 
1.16667 2.75 0.1 
1.75 2.75 0.1 
2.33333 2.75 0.1 
2.91667 2.75 0.1 
3.5 2.75 0.1 
4.08333 2.75 0.1 
4.66667 2.75 0.1 
5.25 2.75 0.1 
5.83333 2.75 0.1 
6.41667 2.75 0.1 
7 2.75 0.1 
0 3 0.1 
0.583333 3 0.1 
1.16667 3 0.1 
1.75 3 0.1 
2.33333 3 0.1 
2.91667 3 0.1 
3.5 3 0.1 
4.08333 3 0.1 
4.66667 3 0.1 
5.25 3 0.1 
5.83333 3 0.1 
6.41667 3 0.1 
7 3 0.1 

CELLS 16 1040
64 0 3 42 39 507 510 549 546 1 2 16 29 40 41 13 26 508 509 523 536 547 548 520 533 169 338 172 341 208 377 211 380 182 195 351 364 185 198 354 367 170 171 339 340 209 210 378 379 14 15 27 28 521 522 534 535 183 184 196 197 352 353 365 366 
64 3 6 45 42 510 513 552 549 4 5 19 32 43 44 16 29 511 512 526 539 550 551 523 536 172 341 175 344 211 380 214 383 185 198 354 367 188 201 357 370 173 174 342 343 212 213 381 382 17 18 30 31 524 525 537 538 186 187 199 200 355 356 368 369 
64 6 9 48 45 513 516 555 552 7 8 22 35 46 47 19 32 514 515 529 542 553 554 526 539 175 344 178 347 214 383 217 386 188 201 357 370 191 204 360 373 176 177 345 346 215 216 384 385 20 21 33 34 527 528 540 541 189 190 202 203 358 359 371 372 
64 9 12 51 48 516 519 558 555 10 11 25 38 49 50 22 35 517 518 532 545 556 557 529 542 178 347 181 350 217 386 220 389 191 204 360 373 194 207 363 376 179 180 348 349 218 219 387 388 23 24 36 37 530 531 543 544 192 193 205 206 361 362 374 375 
64 39 42 81 78 546 549 588 585 40 41 55 68 79 80 52 65 547 548 562 575 586 587 559 572 208 377 211 380 247 416 250 419 221 234 390 403 224 237 393 406 209 210 378 379 248 249 417 418 53 54 66 67 560 561 573 574 222 223 235 236 391 392 404 405 
64 42 45 84 81 549 552 591 588 43 44 58 71 82 83 55 68 550 551 565 578 589 590 562 575 211 380 214 383 250 419 253 422 224 237 393 406 227 240 396 409 212 213 381 382 251 252 420 421 56 57 69 70 563 564 576 577 225 226 238 239 394 395 407 408 
64 45 48 87 84 552 555 594 591 46 47 61 74 85 86 58 71 553 554 568 581 592 593 565 578 214 383 217 386 253 422 256 425 227 240 396 409 230 243 399 412 215 216 384 385 254 255 423 424 59 60 72 73 566 567 579 580 228 229 241 242 397 398 410 411 
64 48 51 90 87 555 558 597 594 49 50 64 77 88 89 61 74 556 557 571 584 595 596 568 581 217 386 220 389 256 425 259 428 230 243 399 412 233 246 402 415 218 219 387 388 257 258 426 427 62 63 75 76 569 570 582 583 231 232 244 245 400 401 413 414 
64 78 81 120 117 585 588 627 624 79 80 94 107 118 119 91 104 586 587 601 614 625 626 598 611 247 416 250 419 286 455 289 458 260 273 429 442 263 276 432 445 248 249 417 418 287 288 456 457 92 93 105 106 599 600 612 613 261 262 274 275 430 431 443 444 
64 81 84 123 120 588 591 630 627 82 83 97 110 121 122 94 107 589 590 604 617 628 629 601 614 250 419 253 422 289 458 292 461 263 276 432 445 266 279 435 448 251 252 420 421 290 291 459 460 95 96 108 109 602 603 615 616 264 265 277 278 433 434 446 447 
64 84 87 126 123 591 594 633 630 85 86 100 113 124 125 97 110 592 593 607 620 631 632 604 617 253 422 256 425 292 461 295 464 266 279 435 448 269 282 438 451 254 255 423 424 293 294 462 463 98 99 111 112 605 606 618 619 267 268 280 281 436 437 449 450 
64 87 90 129 126 594 597 636 633 88 89 103 116 127 128 100 113 595 596 610 623 634 635 607 620 256 425 259 428 295 464 298 467 269 282 438 451 272 285 441 454 257 258 426 427 296 297 465 466 101 102 114 115 608 609 621 622 270 271 283 284 439 440 452 453 
64 117 120 159 156 624 627 666 663 118 119 133 146 157 158 130 143 625 626 640 653 664 665 637 650 286 455 289 458 325 494 328 497 299 312 468 481 302 315 471 484 287 288 456 457 326 327 495 496 131 132 144 145 638 639 651 652 300 301 313 314 469 470 482 483 
64 120 123 162 159 627 630 669 666 121 122 136 149 160 161 133 146 628 629 643 656 667 668 640 653 289 458 292 461 328 497 331 500 302 315 471 484 305 318 474 487 290 291 459 460 329 330 498 499 134 135 147 148 641 642 654 655 303 304 316 317 472 473 485 486 
64 123 126 165 162 630 633 672 669 124 125 139 152 163 164 136 149 631 632 646 659 670 671 643 656 292 461 295 464 331 500 334 503 305 318 474 487 308 321 477 490 293 294 462 463 332 333 501 502 137 138 150 151 644 645 657 658 306 307 319 320 475 476 488 489 
64 126 129 168 165 633 636 675 672 127 128 142 155 166 167 139 152 634 635 649 662 673 674 646 659 295 464 298 467 334 503 337 506 308 321 477 490 311 324 480 493 296 297 465 466 335 336 504 505 140 141 153 154 647 648 660 661 309 310 322 323 478 479 491 492 

CELL_TYPES 16
72
72
72
72
72
72
72
72
72
72
72
72
72
72
72
72

POINT_DATA 676
SCALARS point_var float 1
LOOKUP_TABLE default
0
1
2
3
4
5
6
7
8
9
10
11
12
13
14
15
16
17
18
19
20
21
22
23
24
25
26
27
28
29
30
31
32
33
34
35
36
37
38
39
40
41
42
43
44
45
46
47
48
49
50
51
52
53
54
55
56
57
58
59
60
61
62
63
64
65
66
67
68
69
70
71
72
73
74
75
76
77
78
79
80
81
82
83
84
85
86
87
88
89
90
91
92
93
94
95
96
97
98
99
100
101
102
103
104
105
106
107
108
109
110
111
112
113
114
115
116
117
118
119
120
121
122
123
124
125
126
127
128
129
130
131
132
133
134
135
136
137
138
139
140
141
142
143
144
145
146
147
148
149
150
151
152
153
154
155
156
157
158
159
160
161
162
163
164
165
166
167
168
169
170
171
172
173
174
175
176
177
178
179
180
181
182
183
184
185
186
187
188
189
190
191
192
193
194
195
196
197
198
199
200
201
202
203
204
205
206
207
208
209
210
211
212
213
214
215
216
217
218
219
220
221
222
223
224
225
226
227
228
229
230
231
232
233
234
235
236
237
238
239
240
241
242
243
244
245
246
247
248
249
250
251
252
253
254
255
256
257
258
259
260
261
262
263
264
265
266
267
268
269
270
271
272
273
274
275
276
277
278
279
280
281
282
283
284
285
286
287
288
289
290
291
292
293
294
295
296
297
298
299
300
301
302
303
304
305
306
307
308
309
310
311
312
313
314
315
316
317
318
319
320
321
322
323
324
325
326
327
328
329
330
331
332
333
334
335
336
337
338
339
340
341
342
343
344
345
346
347
348
349
350
351
352
353
354
355
356
357
358
359
360
361
362
363
364
365
366
367
368
369
370
371
372
373
374
375
376
377
378
379
380
381
382
383
384
385
386
387
388
389
390
391
392
393
394
395
396
397
398
399
400
401
402
403
404
405
406
407
408
409
410
411
412
413
414
415
416
417
418
419
420
421
422
423
424
425
426
427
428
429
430
431
432
433
434
435
436
437
438
439
440
441
442
443
444
445
446
447
448
449
450
451
452
453
454
455
456
457
458
459
460
461
462
463
464
465
466
467
468
469
470
471
472
473
474
475
476
477
478
479
480
481
482
483
484
485
486
487
488
489
490
491
492
493
494
495
496
497
498
499
500
501
502
503
504
505
506
507
508
509
510
511
512
513
514
515
516
517
518
519
520
521
522
523
524
525
526
527
528
529
530
531
532
533
534
535
536
537
538
539
540
541
542
543
544
545
546
547
548
549
550
551
552
553
554
555
556
557
558
559
560
561
562
563
564
565
566
567
568
569
570
571
572
573
574
575
576
577
578
579
580
581
582
583
584
585
586
587
588
589
590
591
592
593
594
595
596
597
598
599
600
601
602
603
604
605
606
607
608
609
610
611
612
613
614
615
616
617
618
619
620
621
622
623
624
625
626
627
628
629
630
631
632
633
634
635
636
637
638
639
640
641
642
643
644
645
646
647
648
649
650
651
652
653
654
655
656
657
658
659
660
661
662
663
664
665
666
667
668
669
670
671
672
673
674
675

VECTORS point_vec float
0 1 2
0 1 2
0 1 2
0 1 2
0 1 2
0 1 2
0 1 2
0 1 2
0 1 2
0 1 2
0 1 2
0 1 2
0 1 2
0 1 2
0 1 2
0 1 2
0 1 2
0 1 2
0 1 2
0 1 2
0 1 2
0 1 2
0 1 2
0 1 2
0 1 2
0 1 2
0 1 2
0 1 2
0 1 2
0 1 2
0 1 2
0 1 2
0 1 2
0 1 2
0 1 2
0 1 2
0 1 2
0 1 2
0 1 2
0 1 2
0 1 2
0 1 2
0 1 2
0 1 2
0 1 2
0 1 2
0 1 2
0 1 2
0 1 2
0 1 2
0 1 2
0 1 2
0 1 2
0 1 2
0 1 2
0 1 2
0 1 2
0 1 2
0 1 2
0 1 2
0 1 2
0 1 2
0 1 2
0 1 2
0 1 2
0 1 2
0 1 2
0 1 2
0 1 2
0 1 2
0 1 2
0 1 2
0 1 2
0 1 2
0 1 2
0 1 2
0 1 2
0 1 2
0 1 2
0 1 2
0 1 2
0 1 2
0 1 2
0 1 2
0 1 2
0 1 2
0 1 2
0 1 2
0 1 2
0 1 2
0 1 2
0 1 2
0 1 2
0 1 2
0 1 2
0 1 2
0 1 2
0 1 2
0 1 2
0 1 2
0 1 2
0 1 2
0 1 2
0 1 2
0 1 2
0 1 2
0 1 2
0 1 2
0 1 2
0 1 2
0 1 2
0 1 2
0 1 2
0 1 2
0 1 2
0 1 2
0 1 2
0 1 2
0 1 2
0 1 2
0 1 2
0 1 2
0 1 2
0 1 2
0 1 2
0 1 2
0 1 2
0 1 2
0 1 2
0 1 2
0 1 2
0 1 2
0 1 2
0 1 2
0 1 2
0 1 2
0 1 2
0 1 2
0 1 2
0 1 2
0 1 2
0 1 2
0 1 2
0 1 2
0 1 2
0 1 2
0 1 2
0 1 2
0 1 2
0 1 2
0 1 2
0 1 2
0 1 2
0 1 2
0 1 2
0 1 2
0 1 2
0 1 2
0 1 2
0 1 2
0 1 2
0 1 2
0 1 2
0 1 2
0 1 2
0 1 2
0 1 2
0 1 2
0 1 2
0 1 2
0 1 2
0 1 2
0 1 2
0 1 2
0 1 2
0 1 2
0 1 2
0 1 2
0 1 2
0 1 2
0 1 2
0 1 2
0 1 2
0 1 2
0 1 2
0 1 2
0 1 2
0 1 2
0 1 2
0 1 2
0 1 2
0 1 2
0 1 2
0 1 2
0 1 2
0 1 2
0 1 2
0 1 2
0 1 2
0 1 2
0 1 2
0 1 2
0 1 2
0 1 2
0 1 2
0 1 2
0 1 2
0 1 2
0 1 2
0 1 2
0 1 2
0 1 2
0 1 2
0 1 2
0 1 2
0 1 2
0 1 2
0 1 2
0 1 2
0 1 2
0 1 2
0 1 2
0 1 2
0 1 2
0 1 2
0 1 2
0 1 2
0 1 2
0 1 2
0 1 2
0 1 2
0 1 2
0 1 2
0 1 2
0 1 2
0 1 2
0 1 2
0 1 2
0 1 2
0 1 2
0 1 2
0 1 2
0 1 2
0 1 2
0 1 2
0 1 2
0 1 2
0 1 2
0 1 2
0 1 2
0 1 2
0 1 2
0 1 2
0 1 2
0 1 2
0 1 2
0 1 2
0 1 2
0 1 2
0 1 2
0 1 2
0 1 2
0 1 2
0 1 2
0 1 2
0 1 2
0 1 2
0 1 2
0 1 2
0 1 2
0 1 2
0 1 2
0 1 2
0 1 2
0 1 2
0 1 2
0 1 2
0 1 2
0 1 2
0 1 2
0 1 2
0 1 2
0 1 2
0 1 2
0 1 2
0 1 2
0 1 2
0 1 2
0 1 2
0 1 2
0 1 2
0 1 2
0 1 2
0 1 2
0 1 2
0 1 2
0 1 2
0 1 2
0 1 2
0 1 2
0 1 2
0 1 2
0 1 2
0 1 2
0 1 2
0 1 2
0 1 2
0 1 2
0 1 2
0 1 2
0 1 2
0 1 2
0 1 2
0 1 2
0 1 2
0 1 2
0 1 2
0 1 2
0 1 2
0 1 2
0 1 2
0 1 2
0 1 2
0 1 2
0 1 2
0 1 2
0 1 2
0 1 2
0 1 2
0 1 2
0 1 2
0 1 2
0 1 2
0 1 2
0 1 2
0 1 2
0 1 2
0 1 2
0 1 2
0 1 2
0 1 2
0 1 2
0 1 2
0 1 2
0 1 2
0 1 2
0 1 2
0 1 2
0 1 2
0 1 2
0 1 2
0 1 2
0 1 2
0 1 2
0 1 2
0 1 2
0 1 2
0 1 2
0 1 2
0 1 2
0 1 2
0 1 2
0 1 2
0 1 2
0 1 2
0 1 2
0 1 2
0 1 2
0 1 2
0 1 2
0 1 2
0 1 2
0 1 2
0 1 2
0 1 2
0 1 2
0 1 2
0 1 2
0 1 2
0 1 2
0 1 2
0 1 2
0 1 2
0 1 2
0 1 2
0 1 2
0 1 2
0 1 2
0 1 2
0 1 2
0 1 2
0 1 2
0 1 2
0 1 2
0 1 2
0 1 2
0 1 2
0 1 2
0 1 2
0 1 2
0 1 2
0 1 2
0 1 2
0 1 2
0 1 2
0 1 2
0 1 2
0 1 2
0 1 2
0 1 2
0 1 2
0 1 2
0 1 2
0 1 2
0 1 2
0 1 2
0 1 2
0 1 2
0 1 2
0 1 2
0 1 2
0 1 2
0 1 2
0 1 2
0 1 2
0 1 2
0 1 2
0 1 2
0 1 2
0 1 2
0 1 2
0 1 2
0 1 2
0 1 2
0 1 2
0 1 2
0 1 2
0 1 2
0 1 2
0 1 2
0 1 2
0 1 2
0 1 2
0 1 2
0 1 2
0 1 2
0 1 2
0 1 2
0 1 2
0 1 2
0 1 2
0 1 2
0 1 2
0 1 2
0 1 2
0 1 2
0 1 2
0 1 2
0 1 2
0 1 2
0 1 2
0 1 2
0 1 2
0 1 2
0 1 2
0 1 2
0 1 2
0 1 2
0 1 2
0 1 2
0 1 2
0 1 2
0 1 2
0 1 2
0 1 2
0 1 2
0 1 2
0 1 2
0 1 2
0 1 2
0 1 2
0 1 2
0 1 2
0 1 2
0 1 2
0 1 2
0 1 2
0 1 2
0 1 2
0 1 2
0 1 2
0 1 2
0 1 2
0 1 2
0 1 2
0 1 2
0 1 2
0 1 2
0 1 2
0 1 2
0 1 2
0 1 2
0 1 2
0 1 2
0 1 2
0 1 2
0 1 2
0 1 2
0 1 2
0 1 2
0 1 2
0 1 2
0 1 2
0 1 2
0 1 2
0 1 2
0 1 2
0 1 2
0 1 2
0 1 2
0 1 2
0 1 2
0 1 2
0 1 2
0 1 2
0 1 2
0 1 2
0 1 2
0 1 2
0 1 2
0 1 2
0 1 2
0 1 2
0 1 2
0 1 2
0 1 2
0 1 2
0 1 2
0 1 2
0 1 2
0 1 2
0 1 2
0 1 2
0 1 2
0 1 2
0 1 2
0 1 2
0 1 2
0 1 2
0 1 2
0 1 2
0 1 2
0 1 2
0 1 2
0 1 2
0 1 2
0 1 2
0 1 2
0 1 2
0 1 2
0 1 2
0 1 2
0 1 2
0 1 2
0 1 2
0 1 2
0 1 2
0 1 2
0 1 2
0 1 2
0 1 2
0 1 2
0 1 2
0 1 2
0 1 2
0 1 2
0 1 2
0 1 2
0 1 2
0 1 2
0 1 2
0 1 2
0 1 2
0 1 2
0 1 2
0 1 2
0 1 2
0 1 2
0 1 2
0 1 2
0 1 2
0 1 2
0 1 2
0 1 2
0 1 2
0 1 2
0 1 2
0 1 2
0 1 2
0 1 2
0 1 2
0 1 2
0 1 2
0 1 2
0 1 2
0 1 2
0 1 2
0 1 2
0 1 2
0 1 2
0 1 2
0 1 2
0 1 2
0 1 2
0 1 2
0 1 2
0 1 2
0 1 2
0 1 2
0 1 2
0 1 2
0 1 2
0 1 2
0 1 2
0 1 2
0 1 2
0 1 2
0 1 2
0 1 2
0 1 2
0 1 2
0 1 2
0 1 2
0 1 2
0 1 2
0 1 2
0 1 2
0 1 2
0 1 2
0 1 2
0 1 2
0 1 2
0 1 2
0 1 2
0 1 2
0 1 2
0 1 2
0 1 2
0 1 2
0 1 2
0 1 2
0 1 2
0 1 2
0 1 2
0 1 2
0 1 2
0 1 2
0 1 2
0 1 2
0 1 2
0 1 2
0 1 2
0 1 2
0 1 2
0 1 2
0 1 2
0 1 2
0 1 2
0 1 2
0 1 2
0 1 2
0 1 2
0 1 2
0 1 2
0 1 2
0 1 2

CELL_DATA 16
SCALARS elem_var float 1
LOOKUP_TABLE default 
0
1
2
3
4
5
6
7
8
9
10
11
12
13
14
15

SCALARS elem_var2 float 1
LOOKUP_TABLE default 
0
18446744073709551615
18446744073709551614
18446744073709551613
18446744073709551612
18446744073709551611
18446744073709551610
18446744073709551609
18446744073709551608
18446744073709551607
18446744073709551606
18446744073709551605
18446744073709551604
18446744073709551603
18446744073709551602
18446744073709551601
