# vtk DataFile Version 2.0
Mesh for Fierro
ASCII
DATASET UNSTRUCTURED_GRID

POINTS 675 float
0 0 0 
0.5 0 0 
1 0 0 
1.5 0 0 
2 0 0 
2.5 0 0 
3 0 0 
3.5 0 0 
4 0 0 
4.5 0 0 
5 0 0 
5.5 0 0 
6 0 0 
6.5 0 0 
7 0 0 
0 0.214286 0 
0.5 0.214286 0 
1 0.214286 0 
1.5 0.214286 0 
2 0.214286 0 
2.5 0.214286 0 
3 0.214286 0 
3.5 0.214286 0 
4 0.214286 0 
4.5 0.214286 0 
5 0.214286 0 
5.5 0.214286 0 
6 0.214286 0 
6.5 0.214286 0 
7 0.214286 0 
0 0.428571 0 
0.5 0.428571 0 
1 0.428571 0 
1.5 0.428571 0 
2 0.428571 0 
2.5 0.428571 0 
3 0.428571 0 
3.5 0.428571 0 
4 0.428571 0 
4.5 0.428571 0 
5 0.428571 0 
5.5 0.428571 0 
6 0.428571 0 
6.5 0.428571 0 
7 0.428571 0 
0 0.642857 0 
0.5 0.642857 0 
1 0.642857 0 
1.5 0.642857 0 
2 0.642857 0 
2.5 0.642857 0 
3 0.642857 0 
3.5 0.642857 0 
4 0.642857 0 
4.5 0.642857 0 
5 0.642857 0 
5.5 0.642857 0 
6 0.642857 0 
6.5 0.642857 0 
7 0.642857 0 
0 0.857143 0 
0.5 0.857143 0 
1 0.857143 0 
1.5 0.857143 0 
2 0.857143 0 
2.5 0.857143 0 
3 0.857143 0 
3.5 0.857143 0 
4 0.857143 0 
4.5 0.857143 0 
5 0.857143 0 
5.5 0.857143 0 
6 0.857143 0 
6.5 0.857143 0 
7 0.857143 0 
0 1.07143 0 
0.5 1.07143 0 
1 1.07143 0 
1.5 1.07143 0 
2 1.07143 0 
2.5 1.07143 0 
3 1.07143 0 
3.5 1.07143 0 
4 1.07143 0 
4.5 1.07143 0 
5 1.07143 0 
5.5 1.07143 0 
6 1.07143 0 
6.5 1.07143 0 
7 1.07143 0 
0 1.28571 0 
0.5 1.28571 0 
1 1.28571 0 
1.5 1.28571 0 
2 1.28571 0 
2.5 1.28571 0 
3 1.28571 0 
3.5 1.28571 0 
4 1.28571 0 
4.5 1.28571 0 
5 1.28571 0 
5.5 1.28571 0 
6 1.28571 0 
6.5 1.28571 0 
7 1.28571 0 
0 1.5 0 
0.5 1.5 0 
1 1.5 0 
1.5 1.5 0 
2 1.5 0 
2.5 1.5 0 
3 1.5 0 
3.5 1.5 0 
4 1.5 0 
4.5 1.5 0 
5 1.5 0 
5.5 1.5 0 
6 1.5 0 
6.5 1.5 0 
7 1.5 0 
0 1.71429 0 
0.5 1.71429 0 
1 1.71429 0 
1.5 1.71429 0 
2 1.71429 0 
2.5 1.71429 0 
3 1.71429 0 
3.5 1.71429 0 
4 1.71429 0 
4.5 1.71429 0 
5 1.71429 0 
5.5 1.71429 0 
6 1.71429 0 
6.5 1.71429 0 
7 1.71429 0 
0 1.92857 0 
0.5 1.92857 0 
1 1.92857 0 
1.5 1.92857 0 
2 1.92857 0 
2.5 1.92857 0 
3 1.92857 0 
3.5 1.92857 0 
4 1.92857 0 
4.5 1.92857 0 
5 1.92857 0 
5.5 1.92857 0 
6 1.92857 0 
6.5 1.92857 0 
7 1.92857 0 
0 2.14286 0 
0.5 2.14286 0 
1 2.14286 0 
1.5 2.14286 0 
2 2.14286 0 
2.5 2.14286 0 
3 2.14286 0 
3.5 2.14286 0 
4 2.14286 0 
4.5 2.14286 0 
5 2.14286 0 
5.5 2.14286 0 
6 2.14286 0 
6.5 2.14286 0 
7 2.14286 0 
0 2.35714 0 
0.5 2.35714 0 
1 2.35714 0 
1.5 2.35714 0 
2 2.35714 0 
2.5 2.35714 0 
3 2.35714 0 
3.5 2.35714 0 
4 2.35714 0 
4.5 2.35714 0 
5 2.35714 0 
5.5 2.35714 0 
6 2.35714 0 
6.5 2.35714 0 
7 2.35714 0 
0 2.57143 0 
0.5 2.57143 0 
1 2.57143 0 
1.5 2.57143 0 
2 2.57143 0 
2.5 2.57143 0 
3 2.57143 0 
3.5 2.57143 0 
4 2.57143 0 
4.5 2.57143 0 
5 2.57143 0 
5.5 2.57143 0 
6 2.57143 0 
6.5 2.57143 0 
7 2.57143 0 
0 2.78571 0 
0.5 2.78571 0 
1 2.78571 0 
1.5 2.78571 0 
2 2.78571 0 
2.5 2.78571 0 
3 2.78571 0 
3.5 2.78571 0 
4 2.78571 0 
4.5 2.78571 0 
5 2.78571 0 
5.5 2.78571 0 
6 2.78571 0 
6.5 2.78571 0 
7 2.78571 0 
0 3 0 
0.5 3 0 
1 3 0 
1.5 3 0 
2 3 0 
2.5 3 0 
3 3 0 
3.5 3 0 
4 3 0 
4.5 3 0 
5 3 0 
5.5 3 0 
6 3 0 
6.5 3 0 
7 3 0 
0 0 0.05 
0.5 0 0.05 
1 0 0.05 
1.5 0 0.05 
2 0 0.05 
2.5 0 0.05 
3 0 0.05 
3.5 0 0.05 
4 0 0.05 
4.5 0 0.05 
5 0 0.05 
5.5 0 0.05 
6 0 0.05 
6.5 0 0.05 
7 0 0.05 
0 0.214286 0.05 
0.5 0.214286 0.05 
1 0.214286 0.05 
1.5 0.214286 0.05 
2 0.214286 0.05 
2.5 0.214286 0.05 
3 0.214286 0.05 
3.5 0.214286 0.05 
4 0.214286 0.05 
4.5 0.214286 0.05 
5 0.214286 0.05 
5.5 0.214286 0.05 
6 0.214286 0.05 
6.5 0.214286 0.05 
7 0.214286 0.05 
0 0.428571 0.05 
0.5 0.428571 0.05 
1 0.428571 0.05 
1.5 0.428571 0.05 
2 0.428571 0.05 
2.5 0.428571 0.05 
3 0.428571 0.05 
3.5 0.428571 0.05 
4 0.428571 0.05 
4.5 0.428571 0.05 
5 0.428571 0.05 
5.5 0.428571 0.05 
6 0.428571 0.05 
6.5 0.428571 0.05 
7 0.428571 0.05 
0 0.642857 0.05 
0.5 0.642857 0.05 
1 0.642857 0.05 
1.5 0.642857 0.05 
2 0.642857 0.05 
2.5 0.642857 0.05 
3 0.642857 0.05 
3.5 0.642857 0.05 
4 0.642857 0.05 
4.5 0.642857 0.05 
5 0.642857 0.05 
5.5 0.642857 0.05 
6 0.642857 0.05 
6.5 0.642857 0.05 
7 0.642857 0.05 
0 0.857143 0.05 
0.5 0.857143 0.05 
1 0.857143 0.05 
1.5 0.857143 0.05 
2 0.857143 0.05 
2.5 0.857143 0.05 
3 0.857143 0.05 
3.5 0.857143 0.05 
4 0.857143 0.05 
4.5 0.857143 0.05 
5 0.857143 0.05 
5.5 0.857143 0.05 
6 0.857143 0.05 
6.5 0.857143 0.05 
7 0.857143 0.05 
0 1.07143 0.05 
0.5 1.07143 0.05 
1 1.07143 0.05 
1.5 1.07143 0.05 
2 1.07143 0.05 
2.5 1.07143 0.05 
3 1.07143 0.05 
3.5 1.07143 0.05 
4 1.07143 0.05 
4.5 1.07143 0.05 
5 1.07143 0.05 
5.5 1.07143 0.05 
6 1.07143 0.05 
6.5 1.07143 0.05 
7 1.07143 0.05 
0 1.28571 0.05 
0.5 1.28571 0.05 
1 1.28571 0.05 
1.5 1.28571 0.05 
2 1.28571 0.05 
2.5 1.28571 0.05 
3 1.28571 0.05 
3.5 1.28571 0.05 
4 1.28571 0.05 
4.5 1.28571 0.05 
5 1.28571 0.05 
5.5 1.28571 0.05 
6 1.28571 0.05 
6.5 1.28571 0.05 
7 1.28571 0.05 
0 1.5 0.05 
0.5 1.5 0.05 
1 1.5 0.05 
1.5 1.5 0.05 
2 1.5 0.05 
2.5 1.5 0.05 
3 1.5 0.05 
3.5 1.5 0.05 
4 1.5 0.05 
4.5 1.5 0.05 
5 1.5 0.05 
5.5 1.5 0.05 
6 1.5 0.05 
6.5 1.5 0.05 
7 1.5 0.05 
0 1.71429 0.05 
0.5 1.71429 0.05 
1 1.71429 0.05 
1.5 1.71429 0.05 
2 1.71429 0.05 
2.5 1.71429 0.05 
3 1.71429 0.05 
3.5 1.71429 0.05 
4 1.71429 0.05 
4.5 1.71429 0.05 
5 1.71429 0.05 
5.5 1.71429 0.05 
6 1.71429 0.05 
6.5 1.71429 0.05 
7 1.71429 0.05 
0 1.92857 0.05 
0.5 1.92857 0.05 
1 1.92857 0.05 
1.5 1.92857 0.05 
2 1.92857 0.05 
2.5 1.92857 0.05 
3 1.92857 0.05 
3.5 1.92857 0.05 
4 1.92857 0.05 
4.5 1.92857 0.05 
5 1.92857 0.05 
5.5 1.92857 0.05 
6 1.92857 0.05 
6.5 1.92857 0.05 
7 1.92857 0.05 
0 2.14286 0.05 
0.5 2.14286 0.05 
1 2.14286 0.05 
1.5 2.14286 0.05 
2 2.14286 0.05 
2.5 2.14286 0.05 
3 2.14286 0.05 
3.5 2.14286 0.05 
4 2.14286 0.05 
4.5 2.14286 0.05 
5 2.14286 0.05 
5.5 2.14286 0.05 
6 2.14286 0.05 
6.5 2.14286 0.05 
7 2.14286 0.05 
0 2.35714 0.05 
0.5 2.35714 0.05 
1 2.35714 0.05 
1.5 2.35714 0.05 
2 2.35714 0.05 
2.5 2.35714 0.05 
3 2.35714 0.05 
3.5 2.35714 0.05 
4 2.35714 0.05 
4.5 2.35714 0.05 
5 2.35714 0.05 
5.5 2.35714 0.05 
6 2.35714 0.05 
6.5 2.35714 0.05 
7 2.35714 0.05 
0 2.57143 0.05 
0.5 2.57143 0.05 
1 2.57143 0.05 
1.5 2.57143 0.05 
2 2.57143 0.05 
2.5 2.57143 0.05 
3 2.57143 0.05 
3.5 2.57143 0.05 
4 2.57143 0.05 
4.5 2.57143 0.05 
5 2.57143 0.05 
5.5 2.57143 0.05 
6 2.57143 0.05 
6.5 2.57143 0.05 
7 2.57143 0.05 
0 2.78571 0.05 
0.5 2.78571 0.05 
1 2.78571 0.05 
1.5 2.78571 0.05 
2 2.78571 0.05 
2.5 2.78571 0.05 
3 2.78571 0.05 
3.5 2.78571 0.05 
4 2.78571 0.05 
4.5 2.78571 0.05 
5 2.78571 0.05 
5.5 2.78571 0.05 
6 2.78571 0.05 
6.5 2.78571 0.05 
7 2.78571 0.05 
0 3 0.05 
0.5 3 0.05 
1 3 0.05 
1.5 3 0.05 
2 3 0.05 
2.5 3 0.05 
3 3 0.05 
3.5 3 0.05 
4 3 0.05 
4.5 3 0.05 
5 3 0.05 
5.5 3 0.05 
6 3 0.05 
6.5 3 0.05 
7 3 0.05 
0 0 0.1 
0.5 0 0.1 
1 0 0.1 
1.5 0 0.1 
2 0 0.1 
2.5 0 0.1 
3 0 0.1 
3.5 0 0.1 
4 0 0.1 
4.5 0 0.1 
5 0 0.1 
5.5 0 0.1 
6 0 0.1 
6.5 0 0.1 
7 0 0.1 
0 0.214286 0.1 
0.5 0.214286 0.1 
1 0.214286 0.1 
1.5 0.214286 0.1 
2 0.214286 0.1 
2.5 0.214286 0.1 
3 0.214286 0.1 
3.5 0.214286 0.1 
4 0.214286 0.1 
4.5 0.214286 0.1 
5 0.214286 0.1 
5.5 0.214286 0.1 
6 0.214286 0.1 
6.5 0.214286 0.1 
7 0.214286 0.1 
0 0.428571 0.1 
0.5 0.428571 0.1 
1 0.428571 0.1 
1.5 0.428571 0.1 
2 0.428571 0.1 
2.5 0.428571 0.1 
3 0.428571 0.1 
3.5 0.428571 0.1 
4 0.428571 0.1 
4.5 0.428571 0.1 
5 0.428571 0.1 
5.5 0.428571 0.1 
6 0.428571 0.1 
6.5 0.428571 0.1 
7 0.428571 0.1 
0 0.642857 0.1 
0.5 0.642857 0.1 
1 0.642857 0.1 
1.5 0.642857 0.1 
2 0.642857 0.1 
2.5 0.642857 0.1 
3 0.642857 0.1 
3.5 0.642857 0.1 
4 0.642857 0.1 
4.5 0.642857 0.1 
5 0.642857 0.1 
5.5 0.642857 0.1 
6 0.642857 0.1 
6.5 0.642857 0.1 
7 0.642857 0.1 
0 0.857143 0.1 
0.5 0.857143 0.1 
1 0.857143 0.1 
1.5 0.857143 0.1 
2 0.857143 0.1 
2.5 0.857143 0.1 
3 0.857143 0.1 
3.5 0.857143 0.1 
4 0.857143 0.1 
4.5 0.857143 0.1 
5 0.857143 0.1 
5.5 0.857143 0.1 
6 0.857143 0.1 
6.5 0.857143 0.1 
7 0.857143 0.1 
0 1.07143 0.1 
0.5 1.07143 0.1 
1 1.07143 0.1 
1.5 1.07143 0.1 
2 1.07143 0.1 
2.5 1.07143 0.1 
3 1.07143 0.1 
3.5 1.07143 0.1 
4 1.07143 0.1 
4.5 1.07143 0.1 
5 1.07143 0.1 
5.5 1.07143 0.1 
6 1.07143 0.1 
6.5 1.07143 0.1 
7 1.07143 0.1 
0 1.28571 0.1 
0.5 1.28571 0.1 
1 1.28571 0.1 
1.5 1.28571 0.1 
2 1.28571 0.1 
2.5 1.28571 0.1 
3 1.28571 0.1 
3.5 1.28571 0.1 
4 1.28571 0.1 
4.5 1.28571 0.1 
5 1.28571 0.1 
5.5 1.28571 0.1 
6 1.28571 0.1 
6.5 1.28571 0.1 
7 1.28571 0.1 
0 1.5 0.1 
0.5 1.5 0.1 
1 1.5 0.1 
1.5 1.5 0.1 
2 1.5 0.1 
2.5 1.5 0.1 
3 1.5 0.1 
3.5 1.5 0.1 
4 1.5 0.1 
4.5 1.5 0.1 
5 1.5 0.1 
5.5 1.5 0.1 
6 1.5 0.1 
6.5 1.5 0.1 
7 1.5 0.1 
0 1.71429 0.1 
0.5 1.71429 0.1 
1 1.71429 0.1 
1.5 1.71429 0.1 
2 1.71429 0.1 
2.5 1.71429 0.1 
3 1.71429 0.1 
3.5 1.71429 0.1 
4 1.71429 0.1 
4.5 1.71429 0.1 
5 1.71429 0.1 
5.5 1.71429 0.1 
6 1.71429 0.1 
6.5 1.71429 0.1 
7 1.71429 0.1 
0 1.92857 0.1 
0.5 1.92857 0.1 
1 1.92857 0.1 
1.5 1.92857 0.1 
2 1.92857 0.1 
2.5 1.92857 0.1 
3 1.92857 0.1 
3.5 1.92857 0.1 
4 1.92857 0.1 
4.5 1.92857 0.1 
5 1.92857 0.1 
5.5 1.92857 0.1 
6 1.92857 0.1 
6.5 1.92857 0.1 
7 1.92857 0.1 
0 2.14286 0.1 
0.5 2.14286 0.1 
1 2.14286 0.1 
1.5 2.14286 0.1 
2 2.14286 0.1 
2.5 2.14286 0.1 
3 2.14286 0.1 
3.5 2.14286 0.1 
4 2.14286 0.1 
4.5 2.14286 0.1 
5 2.14286 0.1 
5.5 2.14286 0.1 
6 2.14286 0.1 
6.5 2.14286 0.1 
7 2.14286 0.1 
0 2.35714 0.1 
0.5 2.35714 0.1 
1 2.35714 0.1 
1.5 2.35714 0.1 
2 2.35714 0.1 
2.5 2.35714 0.1 
3 2.35714 0.1 
3.5 2.35714 0.1 
4 2.35714 0.1 
4.5 2.35714 0.1 
5 2.35714 0.1 
5.5 2.35714 0.1 
6 2.35714 0.1 
6.5 2.35714 0.1 
7 2.35714 0.1 
0 2.57143 0.1 
0.5 2.57143 0.1 
1 2.57143 0.1 
1.5 2.57143 0.1 
2 2.57143 0.1 
2.5 2.57143 0.1 
3 2.57143 0.1 
3.5 2.57143 0.1 
4 2.57143 0.1 
4.5 2.57143 0.1 
5 2.57143 0.1 
5.5 2.57143 0.1 
6 2.57143 0.1 
6.5 2.57143 0.1 
7 2.57143 0.1 
0 2.78571 0.1 
0.5 2.78571 0.1 
1 2.78571 0.1 
1.5 2.78571 0.1 
2 2.78571 0.1 
2.5 2.78571 0.1 
3 2.78571 0.1 
3.5 2.78571 0.1 
4 2.78571 0.1 
4.5 2.78571 0.1 
5 2.78571 0.1 
5.5 2.78571 0.1 
6 2.78571 0.1 
6.5 2.78571 0.1 
7 2.78571 0.1 
0 3 0.1 
0.5 3 0.1 
1 3 0.1 
1.5 3 0.1 
2 3 0.1 
2.5 3 0.1 
3 3 0.1 
3.5 3 0.1 
4 3 0.1 
4.5 3 0.1 
5 3 0.1 
5.5 3 0.1 
6 3 0.1 
6.5 3 0.1 
7 3 0.1 

CELLS 49 1372
27 0 2 32 30 450 452 482 480 1 17 31 15 451 467 481 465 225 227 255 257 240 242 226 256 16 466 241 
27 2 4 34 32 452 454 484 482 3 19 33 17 453 469 483 467 227 229 257 259 242 244 228 258 18 468 243 
27 4 6 36 34 454 456 486 484 5 21 35 19 455 471 485 469 229 231 259 261 244 246 230 260 20 470 245 
27 6 8 38 36 456 458 488 486 7 23 37 21 457 473 487 471 231 233 261 263 246 248 232 262 22 472 247 
27 8 10 40 38 458 460 490 488 9 25 39 23 459 475 489 473 233 235 263 265 248 250 234 264 24 474 249 
27 10 12 42 40 460 462 492 490 11 27 41 25 461 477 491 475 235 237 265 267 250 252 236 266 26 476 251 
27 12 14 44 42 462 464 494 492 13 29 43 27 463 479 493 477 237 239 267 269 252 254 238 268 28 478 253 
27 30 32 62 60 480 482 512 510 31 47 61 45 481 497 511 495 255 257 285 287 270 272 256 286 46 496 271 
27 32 34 64 62 482 484 514 512 33 49 63 47 483 499 513 497 257 259 287 289 272 274 258 288 48 498 273 
27 34 36 66 64 484 486 516 514 35 51 65 49 485 501 515 499 259 261 289 291 274 276 260 290 50 500 275 
27 36 38 68 66 486 488 518 516 37 53 67 51 487 503 517 501 261 263 291 293 276 278 262 292 52 502 277 
27 38 40 70 68 488 490 520 518 39 55 69 53 489 505 519 503 263 265 293 295 278 280 264 294 54 504 279 
27 40 42 72 70 490 492 522 520 41 57 71 55 491 507 521 505 265 267 295 297 280 282 266 296 56 506 281 
27 42 44 74 72 492 494 524 522 43 59 73 57 493 509 523 507 267 269 297 299 282 284 268 298 58 508 283 
27 60 62 92 90 510 512 542 540 61 77 91 75 511 527 541 525 285 287 315 317 300 302 286 316 76 526 301 
27 62 64 94 92 512 514 544 542 63 79 93 77 513 529 543 527 287 289 317 319 302 304 288 318 78 528 303 
27 64 66 96 94 514 516 546 544 65 81 95 79 515 531 545 529 289 291 319 321 304 306 290 320 80 530 305 
27 66 68 98 96 516 518 548 546 67 83 97 81 517 533 547 531 291 293 321 323 306 308 292 322 82 532 307 
27 68 70 100 98 518 520 550 548 69 85 99 83 519 535 549 533 293 295 323 325 308 310 294 324 84 534 309 
27 70 72 102 100 520 522 552 550 71 87 101 85 521 537 551 535 295 297 325 327 310 312 296 326 86 536 311 
27 72 74 104 102 522 524 554 552 73 89 103 87 523 539 553 537 297 299 327 329 312 314 298 328 88 538 313 
27 90 92 122 120 540 542 572 570 91 107 121 105 541 557 571 555 315 317 345 347 330 332 316 346 106 556 331 
27 92 94 124 122 542 544 574 572 93 109 123 107 543 559 573 557 317 319 347 349 332 334 318 348 108 558 333 
27 94 96 126 124 544 546 576 574 95 111 125 109 545 561 575 559 319 321 349 351 334 336 320 350 110 560 335 
27 96 98 128 126 546 548 578 576 97 113 127 111 547 563 577 561 321 323 351 353 336 338 322 352 112 562 337 
27 98 100 130 128 548 550 580 578 99 115 129 113 549 565 579 563 323 325 353 355 338 340 324 354 114 564 339 
27 100 102 132 130 550 552 582 580 101 117 131 115 551 567 581 565 325 327 355 357 340 342 326 356 116 566 341 
27 102 104 134 132 552 554 584 582 103 119 133 117 553 569 583 567 327 329 357 359 342 344 328 358 118 568 343 
27 120 122 152 150 570 572 602 600 121 137 151 135 571 587 601 585 345 347 375 377 360 362 346 376 136 586 361 
27 122 124 154 152 572 574 604 602 123 139 153 137 573 589 603 587 347 349 377 379 362 364 348 378 138 588 363 
27 124 126 156 154 574 576 606 604 125 141 155 139 575 591 605 589 349 351 379 381 364 366 350 380 140 590 365 
27 126 128 158 156 576 578 608 606 127 143 157 141 577 593 607 591 351 353 381 383 366 368 352 382 142 592 367 
27 128 130 160 158 578 580 610 608 129 145 159 143 579 595 609 593 353 355 383 385 368 370 354 384 144 594 369 
27 130 132 162 160 580 582 612 610 131 147 161 145 581 597 611 595 355 357 385 387 370 372 356 386 146 596 371 
27 132 134 164 162 582 584 614 612 133 149 163 147 583 599 613 597 357 359 387 389 372 374 358 388 148 598 373 
27 150 152 182 180 600 602 632 630 151 167 181 165 601 617 631 615 375 377 405 407 390 392 376 406 166 616 391 
27 152 154 184 182 602 604 634 632 153 169 183 167 603 619 633 617 377 379 407 409 392 394 378 408 168 618 393 
27 154 156 186 184 604 606 636 634 155 171 185 169 605 621 635 619 379 381 409 411 394 396 380 410 170 620 395 
27 156 158 188 186 606 608 638 636 157 173 187 171 607 623 637 621 381 383 411 413 396 398 382 412 172 622 397 
27 158 160 190 188 608 610 640 638 159 175 189 173 609 625 639 623 383 385 413 415 398 400 384 414 174 624 399 
27 160 162 192 190 610 612 642 640 161 177 191 175 611 627 641 625 385 387 415 417 400 402 386 416 176 626 401 
27 162 164 194 192 612 614 644 642 163 179 193 177 613 629 643 627 387 389 417 419 402 404 388 418 178 628 403 
27 180 182 212 210 630 632 662 660 181 197 211 195 631 647 661 645 405 407 435 437 420 422 406 436 196 646 421 
27 182 184 214 212 632 634 664 662 183 199 213 197 633 649 663 647 407 409 437 439 422 424 408 438 198 648 423 
27 184 186 216 214 634 636 666 664 185 201 215 199 635 651 665 649 409 411 439 441 424 426 410 440 200 650 425 
27 186 188 218 216 636 638 668 666 187 203 217 201 637 653 667 651 411 413 441 443 426 428 412 442 202 652 427 
27 188 190 220 218 638 640 670 668 189 205 219 203 639 655 669 653 413 415 443 445 428 430 414 444 204 654 429 
27 190 192 222 220 640 642 672 670 191 207 221 205 641 657 671 655 415 417 445 447 430 432 416 446 206 656 431 
27 192 194 224 222 642 644 674 672 193 209 223 207 643 659 673 657 417 419 447 449 432 434 418 448 208 658 433 

CELL_TYPES 49
72
72
72
72
72
72
72
72
72
72
72
72
72
72
72
72
72
72
72
72
72
72
72
72
72
72
72
72
72
72
72
72
72
72
72
72
72
72
72
72
72
72
72
72
72
72
72
72
72

POINT_DATA 675
SCALARS point_var float 1
LOOKUP_TABLE default
0
1
2
3
4
5
6
7
8
9
10
11
12
13
14
15
16
17
18
19
20
21
22
23
24
25
26
27
28
29
30
31
32
33
34
35
36
37
38
39
40
41
42
43
44
45
46
47
48
49
50
51
52
53
54
55
56
57
58
59
60
61
62
63
64
65
66
67
68
69
70
71
72
73
74
75
76
77
78
79
80
81
82
83
84
85
86
87
88
89
90
91
92
93
94
95
96
97
98
99
100
101
102
103
104
105
106
107
108
109
110
111
112
113
114
115
116
117
118
119
120
121
122
123
124
125
126
127
128
129
130
131
132
133
134
135
136
137
138
139
140
141
142
143
144
145
146
147
148
149
150
151
152
153
154
155
156
157
158
159
160
161
162
163
164
165
166
167
168
169
170
171
172
173
174
175
176
177
178
179
180
181
182
183
184
185
186
187
188
189
190
191
192
193
194
195
196
197
198
199
200
201
202
203
204
205
206
207
208
209
210
211
212
213
214
215
216
217
218
219
220
221
222
223
224
225
226
227
228
229
230
231
232
233
234
235
236
237
238
239
240
241
242
243
244
245
246
247
248
249
250
251
252
253
254
255
256
257
258
259
260
261
262
263
264
265
266
267
268
269
270
271
272
273
274
275
276
277
278
279
280
281
282
283
284
285
286
287
288
289
290
291
292
293
294
295
296
297
298
299
300
301
302
303
304
305
306
307
308
309
310
311
312
313
314
315
316
317
318
319
320
321
322
323
324
325
326
327
328
329
330
331
332
333
334
335
336
337
338
339
340
341
342
343
344
345
346
347
348
349
350
351
352
353
354
355
356
357
358
359
360
361
362
363
364
365
366
367
368
369
370
371
372
373
374
375
376
377
378
379
380
381
382
383
384
385
386
387
388
389
390
391
392
393
394
395
396
397
398
399
400
401
402
403
404
405
406
407
408
409
410
411
412
413
414
415
416
417
418
419
420
421
422
423
424
425
426
427
428
429
430
431
432
433
434
435
436
437
438
439
440
441
442
443
444
445
446
447
448
449
450
451
452
453
454
455
456
457
458
459
460
461
462
463
464
465
466
467
468
469
470
471
472
473
474
475
476
477
478
479
480
481
482
483
484
485
486
487
488
489
490
491
492
493
494
495
496
497
498
499
500
501
502
503
504
505
506
507
508
509
510
511
512
513
514
515
516
517
518
519
520
521
522
523
524
525
526
527
528
529
530
531
532
533
534
535
536
537
538
539
540
541
542
543
544
545
546
547
548
549
550
551
552
553
554
555
556
557
558
559
560
561
562
563
564
565
566
567
568
569
570
571
572
573
574
575
576
577
578
579
580
581
582
583
584
585
586
587
588
589
590
591
592
593
594
595
596
597
598
599
600
601
602
603
604
605
606
607
608
609
610
611
612
613
614
615
616
617
618
619
620
621
622
623
624
625
626
627
628
629
630
631
632
633
634
635
636
637
638
639
640
641
642
643
644
645
646
647
648
649
650
651
652
653
654
655
656
657
658
659
660
661
662
663
664
665
666
667
668
669
670
671
672
673
674

VECTORS point_vec float
0 1 2
0 1 2
0 1 2
0 1 2
0 1 2
0 1 2
0 1 2
0 1 2
0 1 2
0 1 2
0 1 2
0 1 2
0 1 2
0 1 2
0 1 2
0 1 2
0 1 2
0 1 2
0 1 2
0 1 2
0 1 2
0 1 2
0 1 2
0 1 2
0 1 2
0 1 2
0 1 2
0 1 2
0 1 2
0 1 2
0 1 2
0 1 2
0 1 2
0 1 2
0 1 2
0 1 2
0 1 2
0 1 2
0 1 2
0 1 2
0 1 2
0 1 2
0 1 2
0 1 2
0 1 2
0 1 2
0 1 2
0 1 2
0 1 2
0 1 2
0 1 2
0 1 2
0 1 2
0 1 2
0 1 2
0 1 2
0 1 2
0 1 2
0 1 2
0 1 2
0 1 2
0 1 2
0 1 2
0 1 2
0 1 2
0 1 2
0 1 2
0 1 2
0 1 2
0 1 2
0 1 2
0 1 2
0 1 2
0 1 2
0 1 2
0 1 2
0 1 2
0 1 2
0 1 2
0 1 2
0 1 2
0 1 2
0 1 2
0 1 2
0 1 2
0 1 2
0 1 2
0 1 2
0 1 2
0 1 2
0 1 2
0 1 2
0 1 2
0 1 2
0 1 2
0 1 2
0 1 2
0 1 2
0 1 2
0 1 2
0 1 2
0 1 2
0 1 2
0 1 2
0 1 2
0 1 2
0 1 2
0 1 2
0 1 2
0 1 2
0 1 2
0 1 2
0 1 2
0 1 2
0 1 2
0 1 2
0 1 2
0 1 2
0 1 2
0 1 2
0 1 2
0 1 2
0 1 2
0 1 2
0 1 2
0 1 2
0 1 2
0 1 2
0 1 2
0 1 2
0 1 2
0 1 2
0 1 2
0 1 2
0 1 2
0 1 2
0 1 2
0 1 2
0 1 2
0 1 2
0 1 2
0 1 2
0 1 2
0 1 2
0 1 2
0 1 2
0 1 2
0 1 2
0 1 2
0 1 2
0 1 2
0 1 2
0 1 2
0 1 2
0 1 2
0 1 2
0 1 2
0 1 2
0 1 2
0 1 2
0 1 2
0 1 2
0 1 2
0 1 2
0 1 2
0 1 2
0 1 2
0 1 2
0 1 2
0 1 2
0 1 2
0 1 2
0 1 2
0 1 2
0 1 2
0 1 2
0 1 2
0 1 2
0 1 2
0 1 2
0 1 2
0 1 2
0 1 2
0 1 2
0 1 2
0 1 2
0 1 2
0 1 2
0 1 2
0 1 2
0 1 2
0 1 2
0 1 2
0 1 2
0 1 2
0 1 2
0 1 2
0 1 2
0 1 2
0 1 2
0 1 2
0 1 2
0 1 2
0 1 2
0 1 2
0 1 2
0 1 2
0 1 2
0 1 2
0 1 2
0 1 2
0 1 2
0 1 2
0 1 2
0 1 2
0 1 2
0 1 2
0 1 2
0 1 2
0 1 2
0 1 2
0 1 2
0 1 2
0 1 2
0 1 2
0 1 2
0 1 2
0 1 2
0 1 2
0 1 2
0 1 2
0 1 2
0 1 2
0 1 2
0 1 2
0 1 2
0 1 2
0 1 2
0 1 2
0 1 2
0 1 2
0 1 2
0 1 2
0 1 2
0 1 2
0 1 2
0 1 2
0 1 2
0 1 2
0 1 2
0 1 2
0 1 2
0 1 2
0 1 2
0 1 2
0 1 2
0 1 2
0 1 2
0 1 2
0 1 2
0 1 2
0 1 2
0 1 2
0 1 2
0 1 2
0 1 2
0 1 2
0 1 2
0 1 2
0 1 2
0 1 2
0 1 2
0 1 2
0 1 2
0 1 2
0 1 2
0 1 2
0 1 2
0 1 2
0 1 2
0 1 2
0 1 2
0 1 2
0 1 2
0 1 2
0 1 2
0 1 2
0 1 2
0 1 2
0 1 2
0 1 2
0 1 2
0 1 2
0 1 2
0 1 2
0 1 2
0 1 2
0 1 2
0 1 2
0 1 2
0 1 2
0 1 2
0 1 2
0 1 2
0 1 2
0 1 2
0 1 2
0 1 2
0 1 2
0 1 2
0 1 2
0 1 2
0 1 2
0 1 2
0 1 2
0 1 2
0 1 2
0 1 2
0 1 2
0 1 2
0 1 2
0 1 2
0 1 2
0 1 2
0 1 2
0 1 2
0 1 2
0 1 2
0 1 2
0 1 2
0 1 2
0 1 2
0 1 2
0 1 2
0 1 2
0 1 2
0 1 2
0 1 2
0 1 2
0 1 2
0 1 2
0 1 2
0 1 2
0 1 2
0 1 2
0 1 2
0 1 2
0 1 2
0 1 2
0 1 2
0 1 2
0 1 2
0 1 2
0 1 2
0 1 2
0 1 2
0 1 2
0 1 2
0 1 2
0 1 2
0 1 2
0 1 2
0 1 2
0 1 2
0 1 2
0 1 2
0 1 2
0 1 2
0 1 2
0 1 2
0 1 2
0 1 2
0 1 2
0 1 2
0 1 2
0 1 2
0 1 2
0 1 2
0 1 2
0 1 2
0 1 2
0 1 2
0 1 2
0 1 2
0 1 2
0 1 2
0 1 2
0 1 2
0 1 2
0 1 2
0 1 2
0 1 2
0 1 2
0 1 2
0 1 2
0 1 2
0 1 2
0 1 2
0 1 2
0 1 2
0 1 2
0 1 2
0 1 2
0 1 2
0 1 2
0 1 2
0 1 2
0 1 2
0 1 2
0 1 2
0 1 2
0 1 2
0 1 2
0 1 2
0 1 2
0 1 2
0 1 2
0 1 2
0 1 2
0 1 2
0 1 2
0 1 2
0 1 2
0 1 2
0 1 2
0 1 2
0 1 2
0 1 2
0 1 2
0 1 2
0 1 2
0 1 2
0 1 2
0 1 2
0 1 2
0 1 2
0 1 2
0 1 2
0 1 2
0 1 2
0 1 2
0 1 2
0 1 2
0 1 2
0 1 2
0 1 2
0 1 2
0 1 2
0 1 2
0 1 2
0 1 2
0 1 2
0 1 2
0 1 2
0 1 2
0 1 2
0 1 2
0 1 2
0 1 2
0 1 2
0 1 2
0 1 2
0 1 2
0 1 2
0 1 2
0 1 2
0 1 2
0 1 2
0 1 2
0 1 2
0 1 2
0 1 2
0 1 2
0 1 2
0 1 2
0 1 2
0 1 2
0 1 2
0 1 2
0 1 2
0 1 2
0 1 2
0 1 2
0 1 2
0 1 2
0 1 2
0 1 2
0 1 2
0 1 2
0 1 2
0 1 2
0 1 2
0 1 2
0 1 2
0 1 2
0 1 2
0 1 2
0 1 2
0 1 2
0 1 2
0 1 2
0 1 2
0 1 2
0 1 2
0 1 2
0 1 2
0 1 2
0 1 2
0 1 2
0 1 2
0 1 2
0 1 2
0 1 2
0 1 2
0 1 2
0 1 2
0 1 2
0 1 2
0 1 2
0 1 2
0 1 2
0 1 2
0 1 2
0 1 2
0 1 2
0 1 2
0 1 2
0 1 2
0 1 2
0 1 2
0 1 2
0 1 2
0 1 2
0 1 2
0 1 2
0 1 2
0 1 2
0 1 2
0 1 2
0 1 2
0 1 2
0 1 2
0 1 2
0 1 2
0 1 2
0 1 2
0 1 2
0 1 2
0 1 2
0 1 2
0 1 2
0 1 2
0 1 2
0 1 2
0 1 2
0 1 2
0 1 2
0 1 2
0 1 2
0 1 2
0 1 2
0 1 2
0 1 2
0 1 2
0 1 2
0 1 2
0 1 2
0 1 2
0 1 2
0 1 2
0 1 2
0 1 2
0 1 2
0 1 2
0 1 2
0 1 2
0 1 2
0 1 2
0 1 2
0 1 2
0 1 2
0 1 2
0 1 2
0 1 2
0 1 2
0 1 2
0 1 2
0 1 2
0 1 2
0 1 2
0 1 2
0 1 2
0 1 2
0 1 2
0 1 2
0 1 2
0 1 2
0 1 2
0 1 2
0 1 2
0 1 2
0 1 2
0 1 2
0 1 2
0 1 2
0 1 2
0 1 2
0 1 2
0 1 2
0 1 2
0 1 2
0 1 2
0 1 2
0 1 2
0 1 2
0 1 2
0 1 2
0 1 2
0 1 2
0 1 2
0 1 2
0 1 2
0 1 2
0 1 2
0 1 2
0 1 2
0 1 2
0 1 2
0 1 2
0 1 2
0 1 2
0 1 2
0 1 2
0 1 2
0 1 2
0 1 2
0 1 2
0 1 2
0 1 2
0 1 2
0 1 2
0 1 2
0 1 2
0 1 2
0 1 2
0 1 2
0 1 2
0 1 2
0 1 2
0 1 2
0 1 2
0 1 2
0 1 2
0 1 2
0 1 2
0 1 2
0 1 2
0 1 2
0 1 2
0 1 2
0 1 2
0 1 2
0 1 2
0 1 2
0 1 2
0 1 2
0 1 2
0 1 2
0 1 2
0 1 2
0 1 2
0 1 2
0 1 2
0 1 2
0 1 2

CELL_DATA 49
SCALARS elem_var float 1
LOOKUP_TABLE default 
0
1
2
3
4
5
6
7
8
9
10
11
12
13
14
15
16
17
18
19
20
21
22
23
24
25
26
27
28
29
30
31
32
33
34
35
36
37
38
39
40
41
42
43
44
45
46
47
48

SCALARS elem_var2 float 1
LOOKUP_TABLE default 
0
18446744073709551615
18446744073709551614
18446744073709551613
18446744073709551612
18446744073709551611
18446744073709551610
18446744073709551609
18446744073709551608
18446744073709551607
18446744073709551606
18446744073709551605
18446744073709551604
18446744073709551603
18446744073709551602
18446744073709551601
18446744073709551600
18446744073709551599
18446744073709551598
18446744073709551597
18446744073709551596
18446744073709551595
18446744073709551594
18446744073709551593
18446744073709551592
18446744073709551591
18446744073709551590
18446744073709551589
18446744073709551588
18446744073709551587
18446744073709551586
18446744073709551585
18446744073709551584
18446744073709551583
18446744073709551582
18446744073709551581
18446744073709551580
18446744073709551579
18446744073709551578
18446744073709551577
18446744073709551576
18446744073709551575
18446744073709551574
18446744073709551573
18446744073709551572
18446744073709551571
18446744073709551570
18446744073709551569
18446744073709551568
