# vtk DataFile Version 2.0
Mesh for Fierro
ASCII
DATASET UNSTRUCTURED_GRID

POINTS 315 float
0 0 0 
0.5 0 0 
1 0 0 
1.5 0 0 
2 0 0 
2.5 0 0 
3 0 0 
3.5 0 0 
4 0 0 
4.5 0 0 
5 0 0 
5.5 0 0 
6 0 0 
6.5 0 0 
7 0 0 
0 0.5 0 
0.5 0.5 0 
1 0.5 0 
1.5 0.5 0 
2 0.5 0 
2.5 0.5 0 
3 0.5 0 
3.5 0.5 0 
4 0.5 0 
4.5 0.5 0 
5 0.5 0 
5.5 0.5 0 
6 0.5 0 
6.5 0.5 0 
7 0.5 0 
0 1 0 
0.5 1 0 
1 1 0 
1.5 1 0 
2 1 0 
2.5 1 0 
3 1 0 
3.5 1 0 
4 1 0 
4.5 1 0 
5 1 0 
5.5 1 0 
6 1 0 
6.5 1 0 
7 1 0 
0 1.5 0 
0.5 1.5 0 
1 1.5 0 
1.5 1.5 0 
2 1.5 0 
2.5 1.5 0 
3 1.5 0 
3.5 1.5 0 
4 1.5 0 
4.5 1.5 0 
5 1.5 0 
5.5 1.5 0 
6 1.5 0 
6.5 1.5 0 
7 1.5 0 
0 2 0 
0.5 2 0 
1 2 0 
1.5 2 0 
2 2 0 
2.5 2 0 
3 2 0 
3.5 2 0 
4 2 0 
4.5 2 0 
5 2 0 
5.5 2 0 
6 2 0 
6.5 2 0 
7 2 0 
0 2.5 0 
0.5 2.5 0 
1 2.5 0 
1.5 2.5 0 
2 2.5 0 
2.5 2.5 0 
3 2.5 0 
3.5 2.5 0 
4 2.5 0 
4.5 2.5 0 
5 2.5 0 
5.5 2.5 0 
6 2.5 0 
6.5 2.5 0 
7 2.5 0 
0 3 0 
0.5 3 0 
1 3 0 
1.5 3 0 
2 3 0 
2.5 3 0 
3 3 0 
3.5 3 0 
4 3 0 
4.5 3 0 
5 3 0 
5.5 3 0 
6 3 0 
6.5 3 0 
7 3 0 
0 0 0.05 
0.5 0 0.05 
1 0 0.05 
1.5 0 0.05 
2 0 0.05 
2.5 0 0.05 
3 0 0.05 
3.5 0 0.05 
4 0 0.05 
4.5 0 0.05 
5 0 0.05 
5.5 0 0.05 
6 0 0.05 
6.5 0 0.05 
7 0 0.05 
0 0.5 0.05 
0.5 0.5 0.05 
1 0.5 0.05 
1.5 0.5 0.05 
2 0.5 0.05 
2.5 0.5 0.05 
3 0.5 0.05 
3.5 0.5 0.05 
4 0.5 0.05 
4.5 0.5 0.05 
5 0.5 0.05 
5.5 0.5 0.05 
6 0.5 0.05 
6.5 0.5 0.05 
7 0.5 0.05 
0 1 0.05 
0.5 1 0.05 
1 1 0.05 
1.5 1 0.05 
2 1 0.05 
2.5 1 0.05 
3 1 0.05 
3.5 1 0.05 
4 1 0.05 
4.5 1 0.05 
5 1 0.05 
5.5 1 0.05 
6 1 0.05 
6.5 1 0.05 
7 1 0.05 
0 1.5 0.05 
0.5 1.5 0.05 
1 1.5 0.05 
1.5 1.5 0.05 
2 1.5 0.05 
2.5 1.5 0.05 
3 1.5 0.05 
3.5 1.5 0.05 
4 1.5 0.05 
4.5 1.5 0.05 
5 1.5 0.05 
5.5 1.5 0.05 
6 1.5 0.05 
6.5 1.5 0.05 
7 1.5 0.05 
0 2 0.05 
0.5 2 0.05 
1 2 0.05 
1.5 2 0.05 
2 2 0.05 
2.5 2 0.05 
3 2 0.05 
3.5 2 0.05 
4 2 0.05 
4.5 2 0.05 
5 2 0.05 
5.5 2 0.05 
6 2 0.05 
6.5 2 0.05 
7 2 0.05 
0 2.5 0.05 
0.5 2.5 0.05 
1 2.5 0.05 
1.5 2.5 0.05 
2 2.5 0.05 
2.5 2.5 0.05 
3 2.5 0.05 
3.5 2.5 0.05 
4 2.5 0.05 
4.5 2.5 0.05 
5 2.5 0.05 
5.5 2.5 0.05 
6 2.5 0.05 
6.5 2.5 0.05 
7 2.5 0.05 
0 3 0.05 
0.5 3 0.05 
1 3 0.05 
1.5 3 0.05 
2 3 0.05 
2.5 3 0.05 
3 3 0.05 
3.5 3 0.05 
4 3 0.05 
4.5 3 0.05 
5 3 0.05 
5.5 3 0.05 
6 3 0.05 
6.5 3 0.05 
7 3 0.05 
0 0 0.1 
0.5 0 0.1 
1 0 0.1 
1.5 0 0.1 
2 0 0.1 
2.5 0 0.1 
3 0 0.1 
3.5 0 0.1 
4 0 0.1 
4.5 0 0.1 
5 0 0.1 
5.5 0 0.1 
6 0 0.1 
6.5 0 0.1 
7 0 0.1 
0 0.5 0.1 
0.5 0.5 0.1 
1 0.5 0.1 
1.5 0.5 0.1 
2 0.5 0.1 
2.5 0.5 0.1 
3 0.5 0.1 
3.5 0.5 0.1 
4 0.5 0.1 
4.5 0.5 0.1 
5 0.5 0.1 
5.5 0.5 0.1 
6 0.5 0.1 
6.5 0.5 0.1 
7 0.5 0.1 
0 1 0.1 
0.5 1 0.1 
1 1 0.1 
1.5 1 0.1 
2 1 0.1 
2.5 1 0.1 
3 1 0.1 
3.5 1 0.1 
4 1 0.1 
4.5 1 0.1 
5 1 0.1 
5.5 1 0.1 
6 1 0.1 
6.5 1 0.1 
7 1 0.1 
0 1.5 0.1 
0.5 1.5 0.1 
1 1.5 0.1 
1.5 1.5 0.1 
2 1.5 0.1 
2.5 1.5 0.1 
3 1.5 0.1 
3.5 1.5 0.1 
4 1.5 0.1 
4.5 1.5 0.1 
5 1.5 0.1 
5.5 1.5 0.1 
6 1.5 0.1 
6.5 1.5 0.1 
7 1.5 0.1 
0 2 0.1 
0.5 2 0.1 
1 2 0.1 
1.5 2 0.1 
2 2 0.1 
2.5 2 0.1 
3 2 0.1 
3.5 2 0.1 
4 2 0.1 
4.5 2 0.1 
5 2 0.1 
5.5 2 0.1 
6 2 0.1 
6.5 2 0.1 
7 2 0.1 
0 2.5 0.1 
0.5 2.5 0.1 
1 2.5 0.1 
1.5 2.5 0.1 
2 2.5 0.1 
2.5 2.5 0.1 
3 2.5 0.1 
3.5 2.5 0.1 
4 2.5 0.1 
4.5 2.5 0.1 
5 2.5 0.1 
5.5 2.5 0.1 
6 2.5 0.1 
6.5 2.5 0.1 
7 2.5 0.1 
0 3 0.1 
0.5 3 0.1 
1 3 0.1 
1.5 3 0.1 
2 3 0.1 
2.5 3 0.1 
3 3 0.1 
3.5 3 0.1 
4 3 0.1 
4.5 3 0.1 
5 3 0.1 
5.5 3 0.1 
6 3 0.1 
6.5 3 0.1 
7 3 0.1 

CELLS 21 588
27 0 2 32 30 210 212 242 240 1 17 31 15 211 227 241 225 105 107 135 137 120 122 106 136 16 226 121 
27 2 4 34 32 212 214 244 242 3 19 33 17 213 229 243 227 107 109 137 139 122 124 108 138 18 228 123 
27 4 6 36 34 214 216 246 244 5 21 35 19 215 231 245 229 109 111 139 141 124 126 110 140 20 230 125 
27 6 8 38 36 216 218 248 246 7 23 37 21 217 233 247 231 111 113 141 143 126 128 112 142 22 232 127 
27 8 10 40 38 218 220 250 248 9 25 39 23 219 235 249 233 113 115 143 145 128 130 114 144 24 234 129 
27 10 12 42 40 220 222 252 250 11 27 41 25 221 237 251 235 115 117 145 147 130 132 116 146 26 236 131 
27 12 14 44 42 222 224 254 252 13 29 43 27 223 239 253 237 117 119 147 149 132 134 118 148 28 238 133 
27 30 32 62 60 240 242 272 270 31 47 61 45 241 257 271 255 135 137 165 167 150 152 136 166 46 256 151 
27 32 34 64 62 242 244 274 272 33 49 63 47 243 259 273 257 137 139 167 169 152 154 138 168 48 258 153 
27 34 36 66 64 244 246 276 274 35 51 65 49 245 261 275 259 139 141 169 171 154 156 140 170 50 260 155 
27 36 38 68 66 246 248 278 276 37 53 67 51 247 263 277 261 141 143 171 173 156 158 142 172 52 262 157 
27 38 40 70 68 248 250 280 278 39 55 69 53 249 265 279 263 143 145 173 175 158 160 144 174 54 264 159 
27 40 42 72 70 250 252 282 280 41 57 71 55 251 267 281 265 145 147 175 177 160 162 146 176 56 266 161 
27 42 44 74 72 252 254 284 282 43 59 73 57 253 269 283 267 147 149 177 179 162 164 148 178 58 268 163 
27 60 62 92 90 270 272 302 300 61 77 91 75 271 287 301 285 165 167 195 197 180 182 166 196 76 286 181 
27 62 64 94 92 272 274 304 302 63 79 93 77 273 289 303 287 167 169 197 199 182 184 168 198 78 288 183 
27 64 66 96 94 274 276 306 304 65 81 95 79 275 291 305 289 169 171 199 201 184 186 170 200 80 290 185 
27 66 68 98 96 276 278 308 306 67 83 97 81 277 293 307 291 171 173 201 203 186 188 172 202 82 292 187 
27 68 70 100 98 278 280 310 308 69 85 99 83 279 295 309 293 173 175 203 205 188 190 174 204 84 294 189 
27 70 72 102 100 280 282 312 310 71 87 101 85 281 297 311 295 175 177 205 207 190 192 176 206 86 296 191 
27 72 74 104 102 282 284 314 312 73 89 103 87 283 299 313 297 177 179 207 209 192 194 178 208 88 298 193 

CELL_TYPES 21
72
72
72
72
72
72
72
72
72
72
72
72
72
72
72
72
72
72
72
72
72

POINT_DATA 315
SCALARS point_var float 1
LOOKUP_TABLE default
0
1
2
3
4
5
6
7
8
9
10
11
12
13
14
15
16
17
18
19
20
21
22
23
24
25
26
27
28
29
30
31
32
33
34
35
36
37
38
39
40
41
42
43
44
45
46
47
48
49
50
51
52
53
54
55
56
57
58
59
60
61
62
63
64
65
66
67
68
69
70
71
72
73
74
75
76
77
78
79
80
81
82
83
84
85
86
87
88
89
90
91
92
93
94
95
96
97
98
99
100
101
102
103
104
105
106
107
108
109
110
111
112
113
114
115
116
117
118
119
120
121
122
123
124
125
126
127
128
129
130
131
132
133
134
135
136
137
138
139
140
141
142
143
144
145
146
147
148
149
150
151
152
153
154
155
156
157
158
159
160
161
162
163
164
165
166
167
168
169
170
171
172
173
174
175
176
177
178
179
180
181
182
183
184
185
186
187
188
189
190
191
192
193
194
195
196
197
198
199
200
201
202
203
204
205
206
207
208
209
210
211
212
213
214
215
216
217
218
219
220
221
222
223
224
225
226
227
228
229
230
231
232
233
234
235
236
237
238
239
240
241
242
243
244
245
246
247
248
249
250
251
252
253
254
255
256
257
258
259
260
261
262
263
264
265
266
267
268
269
270
271
272
273
274
275
276
277
278
279
280
281
282
283
284
285
286
287
288
289
290
291
292
293
294
295
296
297
298
299
300
301
302
303
304
305
306
307
308
309
310
311
312
313
314

VECTORS point_vec float
0 1 2
0 1 2
0 1 2
0 1 2
0 1 2
0 1 2
0 1 2
0 1 2
0 1 2
0 1 2
0 1 2
0 1 2
0 1 2
0 1 2
0 1 2
0 1 2
0 1 2
0 1 2
0 1 2
0 1 2
0 1 2
0 1 2
0 1 2
0 1 2
0 1 2
0 1 2
0 1 2
0 1 2
0 1 2
0 1 2
0 1 2
0 1 2
0 1 2
0 1 2
0 1 2
0 1 2
0 1 2
0 1 2
0 1 2
0 1 2
0 1 2
0 1 2
0 1 2
0 1 2
0 1 2
0 1 2
0 1 2
0 1 2
0 1 2
0 1 2
0 1 2
0 1 2
0 1 2
0 1 2
0 1 2
0 1 2
0 1 2
0 1 2
0 1 2
0 1 2
0 1 2
0 1 2
0 1 2
0 1 2
0 1 2
0 1 2
0 1 2
0 1 2
0 1 2
0 1 2
0 1 2
0 1 2
0 1 2
0 1 2
0 1 2
0 1 2
0 1 2
0 1 2
0 1 2
0 1 2
0 1 2
0 1 2
0 1 2
0 1 2
0 1 2
0 1 2
0 1 2
0 1 2
0 1 2
0 1 2
0 1 2
0 1 2
0 1 2
0 1 2
0 1 2
0 1 2
0 1 2
0 1 2
0 1 2
0 1 2
0 1 2
0 1 2
0 1 2
0 1 2
0 1 2
0 1 2
0 1 2
0 1 2
0 1 2
0 1 2
0 1 2
0 1 2
0 1 2
0 1 2
0 1 2
0 1 2
0 1 2
0 1 2
0 1 2
0 1 2
0 1 2
0 1 2
0 1 2
0 1 2
0 1 2
0 1 2
0 1 2
0 1 2
0 1 2
0 1 2
0 1 2
0 1 2
0 1 2
0 1 2
0 1 2
0 1 2
0 1 2
0 1 2
0 1 2
0 1 2
0 1 2
0 1 2
0 1 2
0 1 2
0 1 2
0 1 2
0 1 2
0 1 2
0 1 2
0 1 2
0 1 2
0 1 2
0 1 2
0 1 2
0 1 2
0 1 2
0 1 2
0 1 2
0 1 2
0 1 2
0 1 2
0 1 2
0 1 2
0 1 2
0 1 2
0 1 2
0 1 2
0 1 2
0 1 2
0 1 2
0 1 2
0 1 2
0 1 2
0 1 2
0 1 2
0 1 2
0 1 2
0 1 2
0 1 2
0 1 2
0 1 2
0 1 2
0 1 2
0 1 2
0 1 2
0 1 2
0 1 2
0 1 2
0 1 2
0 1 2
0 1 2
0 1 2
0 1 2
0 1 2
0 1 2
0 1 2
0 1 2
0 1 2
0 1 2
0 1 2
0 1 2
0 1 2
0 1 2
0 1 2
0 1 2
0 1 2
0 1 2
0 1 2
0 1 2
0 1 2
0 1 2
0 1 2
0 1 2
0 1 2
0 1 2
0 1 2
0 1 2
0 1 2
0 1 2
0 1 2
0 1 2
0 1 2
0 1 2
0 1 2
0 1 2
0 1 2
0 1 2
0 1 2
0 1 2
0 1 2
0 1 2
0 1 2
0 1 2
0 1 2
0 1 2
0 1 2
0 1 2
0 1 2
0 1 2
0 1 2
0 1 2
0 1 2
0 1 2
0 1 2
0 1 2
0 1 2
0 1 2
0 1 2
0 1 2
0 1 2
0 1 2
0 1 2
0 1 2
0 1 2
0 1 2
0 1 2
0 1 2
0 1 2
0 1 2
0 1 2
0 1 2
0 1 2
0 1 2
0 1 2
0 1 2
0 1 2
0 1 2
0 1 2
0 1 2
0 1 2
0 1 2
0 1 2
0 1 2
0 1 2
0 1 2
0 1 2
0 1 2
0 1 2
0 1 2
0 1 2
0 1 2
0 1 2
0 1 2
0 1 2
0 1 2
0 1 2
0 1 2
0 1 2
0 1 2
0 1 2
0 1 2
0 1 2
0 1 2
0 1 2
0 1 2
0 1 2
0 1 2
0 1 2
0 1 2
0 1 2
0 1 2
0 1 2
0 1 2
0 1 2
0 1 2
0 1 2
0 1 2
0 1 2
0 1 2
0 1 2
0 1 2
0 1 2
0 1 2
0 1 2
0 1 2

CELL_DATA 21
SCALARS elem_var float 1
LOOKUP_TABLE default 
0
1
2
3
4
5
6
7
8
9
10
11
12
13
14
15
16
17
18
19
20

SCALARS elem_var2 float 1
LOOKUP_TABLE default 
0
18446744073709551615
18446744073709551614
18446744073709551613
18446744073709551612
18446744073709551611
18446744073709551610
18446744073709551609
18446744073709551608
18446744073709551607
18446744073709551606
18446744073709551605
18446744073709551604
18446744073709551603
18446744073709551602
18446744073709551601
18446744073709551600
18446744073709551599
18446744073709551598
18446744073709551597
18446744073709551596
