# vtk DataFile Version 2.0
Mesh for Fierro
ASCII
DATASET UNSTRUCTURED_GRID

POINTS 1331 float
0.00000000                0.00000000                0.00000000                
0.05358627                0.00000000                0.00000000                
0.09381071                0.00000000                0.00000000                
0.13094783                0.00000000                0.00000000                
0.16520594                0.00000000                0.00000000                
0.19861448                0.00000000                0.00000000                
0.23124002                0.00000000                0.00000000                
0.26359023                0.00000000                0.00000000                
0.29856576                0.00000000                0.00000000                
0.35059801                0.00000000                0.00000000                
0.43928462                0.00000000                0.00000000                
0.00000000                0.05358627                0.00000000                
0.05218941                0.05218941                0.00000000                
0.09393998                0.04766198                0.00000000                
0.13063391                0.04458618                0.00000000                
0.16518012                0.04184774                0.00000000                
0.19848742                0.03977656                0.00000000                
0.23110378                0.03815041                0.00000000                
0.26341396                0.03695356                0.00000000                
0.29884830                0.03644778                0.00000000                
0.35197728                0.03735225                0.00000000                
0.44121265                0.03833687                0.00000000                
0.00000000                0.09381071                0.00000000                
0.04766198                0.09393998                0.00000000                
0.09147114                0.09147114                0.00000000                
0.12946819                0.08690372                0.00000000                
0.16442172                0.08276496                0.00000000                
0.19790578                0.07902284                0.00000000                
0.23051897                0.07605915                0.00000000                
0.26287526                0.07382933                0.00000000                
0.30000054                0.07329672                0.00000000                
0.35639861                0.07571753                0.00000000                
0.44710342                0.07810403                0.00000000                
0.00000000                0.13094783                0.00000000                
0.04458618                0.13063391                0.00000000                
0.08690372                0.12946819                0.00000000                
0.12629467                0.12629467                0.00000000                
0.16228568                0.12173758                0.00000000                
0.19630078                0.11733558                0.00000000                
0.22913326                0.11341387                0.00000000                
0.26219142                0.11070171                0.00000000                
0.30297631                0.11130444                0.00000000                
0.36457225                0.11639767                0.00000000                
0.45714377                0.12083931                0.00000000                
0.00000000                0.16520594                0.00000000                
0.04184774                0.16518012                0.00000000                
0.08276496                0.16442172                0.00000000                
0.12173758                0.16228568                0.00000000                
0.15865532                0.15865532                0.00000000                
0.19341060                0.15419599                0.00000000                
0.22689815                0.15009054                0.00000000                
0.26243477                0.14825681                0.00000000                
0.30932484                0.15194111                0.00000000                
0.37720193                0.16107249                0.00000000                
0.47126859                0.16808735                0.00000000                
0.00000000                0.19861448                0.00000000                
0.03977656                0.19848742                0.00000000                
0.07902284                0.19790578                0.00000000                
0.11733558                0.19630078                0.00000000                
0.15419599                0.19341060                0.00000000                
0.18963805                0.18963805                0.00000000                
0.22500654                0.18675647                0.00000000                
0.26586377                0.18847768                0.00000000                
0.32068822                0.19749245                0.00000000                
0.39434484                0.21146024                0.00000000                
0.48885769                0.22101669                0.00000000                
0.00000000                0.23124002                0.00000000                
0.03815041                0.23110378                0.00000000                
0.07605915                0.23051897                0.00000000                
0.11341387                0.22913326                0.00000000                
0.15009054                0.22689815                0.00000000                
0.18675647                0.22500654                0.00000000                
0.22653332                0.22653332                0.00000000                
0.27514098                0.23489217                0.00000000                
0.33772180                0.25044356                0.00000000                
0.41500276                0.26861271                0.00000000                
0.50877475                0.28005577                0.00000000                
0.00000000                0.26359023                0.00000000                
0.03695356                0.26341396                0.00000000                
0.07382933                0.26287526                0.00000000                
0.11070171                0.26219142                0.00000000                
0.14825681                0.26243477                0.00000000                
0.18847768                0.26586377                0.00000000                
0.23489217                0.27514098                0.00000000                
0.29130407                0.29130407                0.00000000                
0.35910944                0.31208321                0.00000000                
0.43743007                0.33252676                0.00000000                
0.52972546                0.34500866                0.00000000                
0.00000000                0.29856576                0.00000000                
0.03644778                0.29884830                0.00000000                
0.07329672                0.30000054                0.00000000                
0.11130444                0.30297631                0.00000000                
0.15194111                0.30932484                0.00000000                
0.19749245                0.32068822                0.00000000                
0.25044356                0.33772180                0.00000000                
0.31208321                0.35910944                0.00000000                
0.38193777                0.38193777                0.00000000                
0.45976854                0.40275540                0.00000000                
0.55038574                0.41566302                0.00000000                
0.00000000                0.35059801                0.00000000                
0.03735225                0.35197728                0.00000000                
0.07571753                0.35639861                0.00000000                
0.11639767                0.36457225                0.00000000                
0.16107249                0.37720193                0.00000000                
0.21146024                0.39434484                0.00000000                
0.26861271                0.41500276                0.00000000                
0.33252676                0.43743007                0.00000000                
0.40275540                0.45976854                0.00000000                
0.47983261                0.47983261                0.00000000                
0.56875766                0.49286045                0.00000000                
0.00000000                0.43928462                0.00000000                
0.03833687                0.44121265                0.00000000                
0.07810403                0.44710342                0.00000000                
0.12083931                0.45714377                0.00000000                
0.16808735                0.47126859                0.00000000                
0.22101669                0.48885769                0.00000000                
0.28005577                0.50877475                0.00000000                
0.34500866                0.52972546                0.00000000                
0.41566302                0.55038574                0.00000000                
0.49286045                0.56875766                0.00000000                
0.58104391                0.58104391                0.00000000                
0.00000000                0.00000000                0.05358627                
0.05218941                0.00000000                0.05218941                
0.09393998                0.00000000                0.04766198                
0.13063391                0.00000000                0.04458618                
[...]
POINT_DATA 1331
VECTORS velocity float
0.00000000                0.00000000                0.00000000                
-0.01104768               0.00000000                0.00000000                
-0.02084629               0.00000000                0.00000000                
-0.03014678               0.00000000                0.00000000                
-0.04026294               0.00000000                0.00000000                
-0.04839114               0.00000000                0.00000000                
-0.05331493               0.00000000                0.00000000                
-0.06004463               0.00000000                0.00000000                
-0.15525184               0.00000000                0.00000000                
-0.43281867               0.00000000                0.00000000                
-0.62646473               0.00000000                0.00000000                
0.00000000                -0.01104768               0.00000000                
-0.01001543               -0.01001543               0.00000000                
-0.01930629               -0.00779544               0.00000000                
-0.02909984               -0.00638900               0.00000000                
-0.03850257               -0.00571892               0.00000000                
-0.04695819               -0.00576668               0.00000000                
-0.05229223               -0.00730627               0.00000000                
-0.06023362               -0.00999413               0.00000000                
-0.16791159               -0.02658366               0.00000000                
-0.45013399               -0.05751673               0.00000000                
-0.63803590               -0.07928160               0.00000000                
0.00000000                -0.02084629               0.00000000                
-0.00779544               -0.01930629               0.00000000                
-0.01642718               -0.01642718               0.00000000                
-0.02550040               -0.01348500               0.00000000                
-0.03455649               -0.01173047               0.00000000                
-0.04293746               -0.01209616               0.00000000                
-0.04879687               -0.01405788               0.00000000                
-0.06508429               -0.02226381               0.00000000                
-0.20862727               -0.06246427               0.00000000                
-0.49942329               -0.12491042               0.00000000                
-0.66879776               -0.16539110               0.00000000                
0.00000000                -0.03014678               0.00000000                
-0.00638900               -0.02909984               0.00000000                
-0.01348500               -0.02550040               0.00000000                
-0.02134782               -0.02134782               0.00000000                
-0.02990101               -0.01880547               0.00000000                
-0.03791955               -0.01890448               0.00000000                
-0.04394090               -0.02160618               0.00000000                
-0.08831766               -0.04533532               0.00000000                
-0.28243638               -0.11905855               0.00000000                
-0.57134883               -0.21001780               0.00000000                
-0.70752858               -0.26133190               0.00000000                
0.00000000                -0.04026294               0.00000000                
-0.00571892               -0.03850257               0.00000000                
-0.01173047               -0.03455649               0.00000000                
-0.01880547               -0.02990101               0.00000000                
-0.02653947               -0.02653947               0.00000000                
-0.03298842               -0.02507035               0.00000000                
-0.05070411               -0.03636293               0.00000000                
-0.15021102               -0.09620003               0.00000000                
-0.38820359               -0.20782940               0.00000000                
-0.64767080               -0.31375399               0.00000000                
-0.73899484               -0.36259178               0.00000000                
0.00000000                -0.04839114               0.00000000                
-0.00576668               -0.04695819               0.00000000                
-0.01209616               -0.04293746               0.00000000                
-0.01890448               -0.03791955               0.00000000                
-0.02507035               -0.03298842               0.00000000                
-0.03820710               -0.03820710               0.00000000                
-0.09673022               -0.08461974               0.00000000                
-0.26177896               -0.19592322               0.00000000                
-0.50874394               -0.33152367               0.00000000                
-0.70484876               -0.42503434               0.00000000                
-0.75154009               -0.45802667               0.00000000                
0.00000000                -0.05331493               0.00000000                
-0.00730627               -0.05229223               0.00000000                
-0.01405788               -0.04879687               0.00000000                
-0.02160618               -0.04394090               0.00000000                
-0.03636293               -0.05070411               0.00000000                
-0.08461974               -0.09673022               0.00000000                
-0.20503344               -0.20503344               0.00000000                
-0.40416069               -0.35139233               0.00000000                
-0.60943723               -0.47129421               0.00000000                
-0.72787453               -0.52467097               0.00000000                
-0.74439821               -0.53811671               0.00000000                
0.00000000                -0.06004463               0.00000000                
-0.00999413               -0.06023362               0.00000000                
-0.02226381               -0.06508429               0.00000000                
-0.04533532               -0.08831766               0.00000000                
-0.09620003               -0.15021102               0.00000000                
-0.19592322               -0.26177896               0.00000000                
-0.35139233               -0.40416069               0.00000000                
-0.52767341               -0.52767341               0.00000000                
-0.65979022               -0.58960612               0.00000000                
-0.72136383               -0.60022327               0.00000000                
-0.72546704               -0.60087729               0.00000000                
0.00000000                -0.15525184               0.00000000                
-0.02658366               -0.16791159               0.00000000                
-0.06246427               -0.20862727               0.00000000                
-0.11905855               -0.28243638               0.00000000                
-0.20782940               -0.38820359               0.00000000                
-0.33152367               -0.50874394               0.00000000                
-0.47129421               -0.60943723               0.00000000                
-0.58960612               -0.65979022               0.00000000                
-0.66435818               -0.66435818               0.00000000                
-0.70190396               -0.65252594               0.00000000                
-0.70378112               -0.64763456               0.00000000                
0.00000000                -0.43281867               0.00000000                
-0.05751673               -0.45013399               0.00000000                
-0.12491042               -0.49942329               0.00000000                
-0.21001780               -0.57134883               0.00000000                
-0.31375399               -0.64767080               0.00000000                
-0.42503434               -0.70484876               0.00000000                
-0.52467097               -0.72787453               0.00000000                
-0.60022327               -0.72136383               0.00000000                
-0.65252594               -0.70190396               0.00000000                
-0.68398629               -0.68398629               0.00000000                
-0.68724989               -0.67684530               0.00000000                
0.00000000                -0.62646473               0.00000000                
-0.07928160               -0.63803590               0.00000000                
-0.16539110               -0.66879776               0.00000000                
-0.26133190               -0.70752858               0.00000000                
-0.36259178               -0.73899484               0.00000000                
-0.45802667               -0.75154009               0.00000000                
-0.53811671               -0.74439821               0.00000000                
-0.60087729               -0.72546704               0.00000000                
-0.64763456               -0.70378112               0.00000000                
-0.67684530               -0.68724989               0.00000000                
-0.68062001               -0.68062001               0.00000000                
0.00000000                0.00000000                -0.01104768               
-0.01001543               0.00000000                -0.01001543               
-0.01930629               0.00000000                -0.00779544               
-0.02909984               0.00000000                -0.00638900               
-0.03850257               0.00000000                -0.00571892               
-0.04695819               0.00000000                -0.00576668               
-0.05229223               0.00000000                -0.00730627               
-0.06023362               0.00000000                -0.00999413               
-0.16791159               0.00000000                -0.02658366               
-0.45013399               0.00000000                -0.05751673               
-0.63803590               0.00000000                -0.07928160               
0.00000000                -0.01001543               -0.01001543               
-0.00908671               -0.00908671               -0.00908671               
-0.01833436               -0.00750263               -0.00750263               
-0.02789177               -0.00635802               -0.00635802               
-0.03707511               -0.00568905               -0.00568905               
-0.04563252               -0.00590809               -0.00590809               
-0.05119977               -0.00722632               -0.00722632               
-0.06112187               -0.01024824               -0.01024824               
-0.18106431               -0.02803237               -0.02803237               
-0.46707005               -0.05916038               -0.05916038               
-0.64900380               -0.08053815               -0.08053815               
0.00000000                -0.01930629               -0.00779544               
-0.00750263               -0.01833436               -0.00750263               
-0.01589451               -0.01589451               -0.00684837               
-0.02463172               -0.01321789               -0.00612968               
-0.03361802               -0.01182988               -0.00577513               
-0.04197798               -0.01225245               -0.00617899               
-0.04758240               -0.01403535               -0.00707774               
-0.06813591               -0.02342064               -0.01163314               
-0.22295470               -0.06563902               -0.03265783               
-0.51507529               -0.12808837               -0.06397286               
-0.67796323               -0.16757520               -0.08393881               
0.00000000                -0.02909984               -0.00638900               
-0.00635802               -0.02789177               -0.00635802               
-0.01321789               -0.02463172               -0.00612968               
-0.02104207               -0.02104207               -0.00588731               
-0.02953382               -0.01886371               -0.00600237               
-0.03728485               -0.01901256               -0.00635334               
-0.04367364               -0.02197151               -0.00725933               
-0.09511227               -0.04841477               -0.01583397               
-0.29777941               -0.12424141               -0.04102041               
-0.58444162               -0.21426303               -0.07134360               
-0.71382838               -0.26367990               -0.08827641               
0.00000000                -0.03850257               -0.00571892               
-0.00568905               -0.03707511               -0.00568905               
-0.01182988               -0.03361802               -0.00577513               
-0.01886371               -0.02953382               -0.00600237               
-0.02650911               -0.02650911               -0.00621337               
-0.03273719               -0.02517704               -0.00629931               
-0.05323729               -0.03835463               -0.00941070               
-0.16124241               -0.10223290               -0.02497990               
-0.40323388               -0.21483457               -0.05320119               
-0.65673342               -0.31797026               -0.07963935               
-0.74193101               -0.36406478               -0.09166207               
0.00000000                -0.04695819               -0.00576668               
-0.00590809               -0.04563252               -0.00590809               
-0.01225245               -0.04197798               -0.00617899               
-0.01901256               -0.03728485               -0.00635334               
-0.02517704               -0.03273719               -0.00629931               
-0.03984871               -0.03984871               -0.00795538               
-0.10427024               -0.09087001               -0.01777963               
-0.27536160               -0.20519445               -0.04039031               
-0.52101084               -0.33904230               -0.06762004               
-0.70915416               -0.42773984               -0.08615992               
-0.75166608               -0.45799279               -0.09254640               
0.00000000                -0.05229223               -0.00730627               
-0.00722632               -0.05119977               -0.00722632               
-0.01403535               -0.04758240               -0.00707774               
-0.02197151               -0.04367364               -0.00725933               
-0.03835463               -0.05323729               -0.00941070               
-0.09087001               -0.10427024               -0.01777963               
-0.21634367               -0.21634367               -0.03593795               
-0.41655371               -0.36187028               -0.06015196               
-0.61640449               -0.47665727               -0.08008676               
-0.72832683               -0.52506698               -0.08863950               
-0.74298360               -0.53681455               -0.09077731               
0.00000000                -0.06023362               -0.00999413               
-0.01024824               -0.06112187               -0.01024824               
-0.02342064               -0.06813591               -0.01163314               
-0.04841477               -0.09511227               -0.01583397               
-0.10223290               -0.16124241               -0.02497990               
-0.20519445               -0.27536160               -0.04039031               
-0.36187028               -0.41655371               -0.06015196               
-0.53489975               -0.53489975               -0.07764061               
-0.66138640               -0.59106624               -0.08618256               
-0.71990498               -0.59893696               -0.08734589               
-0.72354496               -0.59894232               -0.08735966               
0.00000000                -0.16791159               -0.02658366               
-0.02803237               -0.18106431               -0.02803237               
-0.06563902               -0.22295470               -0.03265783               
-0.12424141               -0.29777941               -0.04102041               
-0.21483457               -0.40323388               -0.05320119               
-0.33904230               -0.52101084               -0.06762004               
-0.47665727               -0.61640449               -0.08008676               
-0.59106624               -0.66138640               -0.08618256               
-0.66317066               -0.66317066               -0.08627954               
-0.69993143               -0.65059620               -0.08430758               
-0.70181795               -0.64552397               -0.08352131               
0.00000000                -0.45013399               -0.05751673               
-0.05916038               -0.46707005               -0.05916038               
-0.12808837               -0.51507529               -0.06397286               
-0.21426303               -0.58444162               -0.07134360               
-0.31797026               -0.65673342               -0.07963935               
-0.42773984               -0.70915416               -0.08615992               
-0.52506698               -0.72832683               -0.08863950               
-0.59893696               -0.71990498               -0.08734589               
-0.65059620               -0.69993143               -0.08430758               
-0.68196228               -0.68196228               -0.08141386               
-0.68535259               -0.67477872               -0.08036525               
0.00000000                -0.63803590               -0.07928160               
-0.08053815               -0.64900380               -0.08053815               
-0.16757520               -0.67796323               -0.08393881               
-0.26367990               -0.71382838               -0.08827641               
-0.36406478               -0.74193101               -0.09166207               
-0.45799279               -0.75166608               -0.09254640               
-0.53681455               -0.74298360               -0.09077731               
-0.59894232               -0.72354496               -0.08735966               
-0.64552397               -0.70181795               -0.08352131               
-0.67477872               -0.68535259               -0.08036525               
-0.67871272               -0.67871272               -0.07927420               
0.00000000                0.00000000                -0.02084629               
-0.00779544               0.00000000                -0.01930629               
-0.01642718               0.00000000                -0.01642718               
-0.02550040               0.00000000                -0.01348500               
-0.03455649               0.00000000                -0.01173047               
-0.04293746               0.00000000                -0.01209616               
-0.04879687               0.00000000                -0.01405788               
-0.06508429               0.00000000                -0.02226381               
-0.20862727               0.00000000                -0.06246427               
-0.49942329               0.00000000                -0.12491042               