# vtk DataFile Version 2.0
Mesh for Fierro
ASCII
DATASET UNSTRUCTURED_GRID

POINTS 1331 float
0.00000000                0.00000000                0.00000000                
0.04137547                0.00000000                0.00000000                
0.07260394                0.00000000                0.00000000                
0.10383619                0.00000000                0.00000000                
0.12798169                0.00000000                0.00000000                
0.16603252                0.00000000                0.00000000                
0.19049360                0.00000000                0.00000000                
0.22842797                0.00000000                0.00000000                
0.25352756                0.00000000                0.00000000                
0.31648306                0.00000000                0.00000000                
0.41701632                0.00000000                0.00000000                
0.00000000                0.04137547                0.00000000                
0.04448523                0.04448523                0.00000000                
0.07689775                0.04505137                0.00000000                
0.10389678                0.03861281                0.00000000                
0.13180384                0.03606643                0.00000000                
0.16586061                0.03402650                0.00000000                
0.19180308                0.03240498                0.00000000                
0.22818222                0.03133843                0.00000000                
0.25414093                0.03146531                0.00000000                
0.31931763                0.03445700                0.00000000                
0.41991306                0.03744864                0.00000000                
0.00000000                0.07260394                0.00000000                
0.04505137                0.07689775                0.00000000                
0.08135558                0.08135558                0.00000000                
0.11063105                0.07687125                0.00000000                
0.13938899                0.07179674                0.00000000                
0.16504801                0.06701318                0.00000000                
0.19639034                0.06469918                0.00000000                
0.22619322                0.06244954                0.00000000                
0.25716336                0.06363097                0.00000000                
0.32787915                0.07078589                0.00000000                
0.42837367                0.07692147                0.00000000                
0.00000000                0.10383619                0.00000000                
0.03861281                0.10389678                0.00000000                
0.07687125                0.11063105                0.00000000                
0.11212122                0.11212122                0.00000000                
0.14131691                0.10604135                0.00000000                
0.16753827                0.10027287                0.00000000                
0.19966482                0.09673549                0.00000000                
0.22322793                0.09361682                0.00000000                
0.26508350                0.09831107                0.00000000                
0.34204778                0.11094795                0.00000000                
0.44172797                0.12019524                0.00000000                
0.00000000                0.12798169                0.00000000                
0.03606643                0.13180384                0.00000000                
0.07179674                0.13938899                0.00000000                
0.10604135                0.14131691                0.00000000                
0.13838951                0.13838951                0.00000000                
0.17056324                0.13462518                0.00000000                
0.19677580                0.12769220                0.00000000                
0.22431428                0.12676672                0.00000000                
0.27981366                0.13843104                0.00000000                
0.36101723                0.15665838                0.00000000                
0.45895609                0.16853142                0.00000000                
0.00000000                0.16603252                0.00000000                
0.03402650                0.16586061                0.00000000                
0.06701318                0.16504801                0.00000000                
0.10027287                0.16753827                0.00000000                
0.13462518                0.17056324                0.00000000                
0.16516682                0.16516682                0.00000000                
0.19271574                0.15927068                0.00000000                
0.23478059                0.16680279                0.00000000                
0.30111445                0.18659786                0.00000000                
0.38329928                0.20881802                0.00000000                
0.47888269                0.22253677                0.00000000                
0.00000000                0.19049360                0.00000000                
0.03240498                0.19180308                0.00000000                
0.06469918                0.19639034                0.00000000                
0.09673549                0.19966482                0.00000000                
0.12769220                0.19677580                0.00000000                
0.15927068                0.19271574                0.00000000                
0.19889841                0.19889841                0.00000000                
0.25507793                0.21810515                0.00000000                
0.32647921                0.24349064                0.00000000                
0.40730343                0.26741508                0.00000000                
0.50039208                0.28225364                0.00000000                
0.00000000                0.22842797                0.00000000                
0.03133843                0.22818222                0.00000000                
0.06244954                0.22619322                0.00000000                
0.09361682                0.22322793                0.00000000                
0.12676672                0.22431428                0.00000000                
0.16680279                0.23478059                0.00000000                
0.21810515                0.25507793                0.00000000                
0.28118265                0.28118265                0.00000000                
0.35297348                0.30795378                0.00000000                
0.43178842                0.33197640                0.00000000                
0.52253780                0.34738292                0.00000000                
0.00000000                0.25352756                0.00000000                
0.03146531                0.25414093                0.00000000                
0.06363097                0.25716336                0.00000000                
0.09831107                0.26508350                0.00000000                
0.13843104                0.27981366                0.00000000                
0.18659786                0.30111445                0.00000000                
0.24349064                0.32647921                0.00000000                
0.30795378                0.35297348                0.00000000                
0.37871006                0.37871006                0.00000000                
0.45578204                0.40202913                0.00000000                
0.54444638                0.41760426                0.00000000                
0.00000000                0.31648306                0.00000000                
0.03445700                0.31931763                0.00000000                
0.07078589                0.32787915                0.00000000                
0.11094795                0.34204778                0.00000000                
0.15665838                0.36101723                0.00000000                
0.20881802                0.38329928                0.00000000                
0.26741508                0.40730343                0.00000000                
0.33197640                0.43178842                0.00000000                
0.40202913                0.45578204                0.00000000                
0.47789395                0.47789395                0.00000000                
0.56461509                0.49343932                0.00000000                
0.00000000                0.41701632                0.00000000                
0.03744864                0.41991306                0.00000000                
0.07692147                0.42837367                0.00000000                
0.12019524                0.44172797                0.00000000                
0.16853142                0.45895609                0.00000000                
0.22253677                0.47888269                0.00000000                
0.28225364                0.50039208                0.00000000                
0.34738292                0.52253780                0.00000000                
0.41760426                0.54444638                0.00000000                
0.49343932                0.56461509                0.00000000                
0.57926020                0.57926020                0.00000000                
0.00000000                0.00000000                0.04137547                
0.04448523                0.00000000                0.04448523                
0.07689775                0.00000000                0.04505137                
0.10389678                0.00000000                0.03861281                
[...]
POINT_DATA 1331
VECTORS velocity float
0.00000000                0.00000000                0.00000000                
0.01255686                0.00000000                0.00000000                
-0.09483495               0.00000000                0.00000000                
0.01359320                0.00000000                0.00000000                
-0.06877149               0.00000000                0.00000000                
-0.09108924               0.00000000                0.00000000                
-0.06529717               0.00000000                0.00000000                
-0.06082157               0.00000000                0.00000000                
-0.17683359               0.00000000                0.00000000                
-0.76304465               0.00000000                0.00000000                
-0.89221786               0.00000000                0.00000000                
0.00000000                0.01255686                0.00000000                
-0.01790596               -0.01790596               0.00000000                
-0.01893837               0.01058892                0.00000000                
-0.01432075               0.01129048                0.00000000                
-0.09953064               -0.01718877               0.00000000                
-0.02979424               0.00414939                0.00000000                
-0.11979122               -0.00165618               0.00000000                
-0.01400056               -0.00600328               0.00000000                
-0.22372195               -0.03066312               0.00000000                
-0.77777523               -0.08521294               0.00000000                
-0.89069110               -0.10375184               0.00000000                
0.00000000                -0.09483495               0.00000000                
0.01058892                -0.01893837               0.00000000                
0.02868529                0.02868529                0.00000000                
-0.07048540               -0.00958673               0.00000000                
-0.03040053               0.00424549                0.00000000                
-0.00569182               -0.00107918               0.00000000                
-0.16991456               -0.01467785               0.00000000                
0.05557426                -0.01486519               0.00000000                
-0.34521204               -0.08704010               0.00000000                
-0.81164775               -0.18095308               0.00000000                
-0.88476837               -0.20667050               0.00000000                
0.00000000                0.01359320                0.00000000                
0.01129048                -0.01432075               0.00000000                
-0.00958673               -0.07048540               0.00000000                
-0.01871710               -0.01871710               0.00000000                
0.02987074                0.03066441                0.00000000                
-0.07864453               -0.02954805               0.00000000                
-0.04443228               0.00728286                0.00000000                
0.00990947                -0.04068166               0.00000000                
-0.50353474               -0.18667468               0.00000000                
-0.84080414               -0.28682303               0.00000000                
-0.87190638               -0.30540552               0.00000000                
0.00000000                -0.06877149               0.00000000                
-0.01718877               -0.09953064               0.00000000                
0.00424549                -0.03040053               0.00000000                
0.03066441                0.02987074                0.00000000                
-0.03470352               -0.03470352               0.00000000                
-0.04347352               -0.01318958               0.00000000                
0.06049588                0.01335262                0.00000000                
-0.20128544               -0.14103245               0.00000000                
-0.65198962               -0.32385182               0.00000000                
-0.84644775               -0.39066510               0.00000000                
-0.85119212               -0.39548766               0.00000000                
0.00000000                -0.09108924               0.00000000                
0.00414939                -0.02979424               0.00000000                
-0.00107918               -0.00569182               0.00000000                
-0.02954805               -0.07864453               0.00000000                
-0.01318958               -0.04347352               0.00000000                
0.05090066                0.05090066                0.00000000                
-0.05511400               -0.07321595               0.00000000                
-0.44895956               -0.32653470               0.00000000                
-0.73981762               -0.46473367               0.00000000                
-0.82791133               -0.47999560               0.00000000                
-0.82423162               -0.47445669               0.00000000                
0.00000000                -0.06529717               0.00000000                
-0.00165618               -0.11979122               0.00000000                
-0.01467785               -0.16991456               0.00000000                
0.00728286                -0.04443228               0.00000000                
0.01335262                0.06049588                0.00000000                
-0.07321595               -0.05511400               0.00000000                
-0.34141996               -0.34141996               0.00000000                
-0.61424514               -0.52709380               0.00000000                
-0.75390542               -0.57170560               0.00000000                
-0.79628425               -0.55261094               0.00000000                
-0.79352281               -0.54229063               0.00000000                
0.00000000                -0.06082157               0.00000000                
-0.00600328               -0.01400056               0.00000000                
-0.01486519               0.05557426                0.00000000                
-0.04068166               0.00990947                0.00000000                
-0.14103245               -0.20128544               0.00000000                
-0.32653470               -0.44895956               0.00000000                
-0.52709380               -0.61424514               0.00000000                
-0.66286491               -0.66286491               0.00000000                
-0.72717477               -0.64181314               0.00000000                
-0.76073727               -0.61239020               0.00000000                
-0.76125168               -0.59983936               0.00000000                
0.00000000                -0.17683359               0.00000000                
-0.03066312               -0.22372195               0.00000000                
-0.08704010               -0.34521204               0.00000000                
-0.18667468               -0.50353474               0.00000000                
-0.32385182               -0.65198962               0.00000000                
-0.46473367               -0.73981762               0.00000000                
-0.57170560               -0.75390542               0.00000000                
-0.64181314               -0.72717477               0.00000000                
-0.69184238               -0.69184238               0.00000000                
-0.72576389               -0.66113497               0.00000000                
-0.72980814               -0.64718057               0.00000000                
0.00000000                -0.76304465               0.00000000                
-0.08521294               -0.77777523               0.00000000                
-0.18095308               -0.81164775               0.00000000                
-0.28682303               -0.84080414               0.00000000                
-0.39066510               -0.84644775               0.00000000                
-0.47999560               -0.82791133               0.00000000                
-0.55261094               -0.79628425               0.00000000                
-0.61239020               -0.76073727               0.00000000                
-0.66113497               -0.72576389               0.00000000                
-0.69614090               -0.69614090               0.00000000                
-0.70399389               -0.68108181               0.00000000                
0.00000000                -0.89221786               0.00000000                
-0.10375184               -0.89069110               0.00000000                
-0.20667050               -0.88476837               0.00000000                
-0.30540552               -0.87190638               0.00000000                
-0.39548766               -0.85119212               0.00000000                
-0.47445669               -0.82423162               0.00000000                
-0.54229063               -0.79352281               0.00000000                
-0.59983936               -0.76125168               0.00000000                
-0.64718057               -0.72980814               0.00000000                
-0.68108181               -0.70399389               0.00000000                
-0.69023094               -0.69023094               0.00000000                
0.00000000                0.00000000                0.01255686                
-0.01790596               0.00000000                -0.01790596               
-0.01893837               0.00000000                0.01058892                
-0.01432075               0.00000000                0.01129048                
-0.09953064               0.00000000                -0.01718877               
-0.02979424               0.00000000                0.00414939                
-0.11979122               0.00000000                -0.00165618               
-0.01400056               0.00000000                -0.00600328               
-0.22372195               0.00000000                -0.03066312               
-0.77777523               0.00000000                -0.08521294               
-0.89069110               0.00000000                -0.10375184               
0.00000000                -0.01790596               -0.01790596               
-0.01689090               -0.01689090               -0.01689090               
0.01937232                0.00907652                0.00907652                
-0.04179363               0.00470707                0.00470707                
-0.08143856               -0.00880470               -0.00880470               
-0.00648873               0.00442025                0.00442025                
-0.15073143               -0.00508184               -0.00508184               
0.01917166                -0.00600589               -0.00600589               
-0.26730308               -0.03473961               -0.03473961               
-0.79077357               -0.08715612               -0.08715612               
-0.88892194               -0.10371347               -0.10371347               
0.00000000                -0.01893837               0.01058892                
0.00907652                0.01937232                0.00907652                
0.02201999                0.02201999                -0.00101736               
-0.07313340               -0.01161995               -0.00850555               
-0.00604054               0.00994791                0.00476665                
-0.02601812               -0.00662272               -0.00326580               
-0.15579641               -0.01196295               -0.00711509               
0.06178750                -0.01501634               -0.00619048               
-0.38143621               -0.09480113               -0.04648892               
-0.82008715               -0.18371120               -0.09183810               
-0.88242428               -0.20627793               -0.10325282               
0.00000000                -0.01432075               0.01129048                
0.00470707                -0.04179363               0.00470707                
-0.01161995               -0.07313340               -0.00850555               
-0.00178244               -0.00178244               0.00265408                
0.02786513                0.02624620                0.00927460                
-0.09436472               -0.03260943               -0.01123070               
-0.01468730               0.01065572                0.00124339                
-0.01613755               -0.04794334               -0.01537844               
-0.53080270               -0.19627845               -0.06401814               
-0.84380317               -0.28877463               -0.09639378               
-0.86901148               -0.30436733               -0.10174492               
0.00000000                -0.09953064               -0.01718877               
-0.00880470               -0.08143856               -0.00880470               
0.00994791                -0.00604054               0.00476665                
0.02624620                0.02786513                0.00927460                
-0.04683540               -0.04683540               -0.00776530               
-0.02775506               -0.00359523               -0.00212326               
0.06278737                0.01048493                0.00533018                
-0.23454127               -0.15572512               -0.03665819               
-0.66819177               -0.33221924               -0.08216745               
-0.84538373               -0.39076320               -0.09804449               
-0.84806123               -0.39381874               -0.09894888               
0.00000000                -0.02979424               0.00414939                
0.00442025                -0.00648873               0.00442025                
-0.00662272               -0.02601812               -0.00326580               
-0.03260943               -0.09436472               -0.01123070               
-0.00359523               -0.02775506               -0.00212326               
0.05302696                0.05302696                0.01163325                
-0.08159471               -0.09260859               -0.01794579               
-0.47200246               -0.34155947               -0.06583743               
-0.74500445               -0.46853732               -0.09377176               
-0.82509533               -0.47851295               -0.09627030               
-0.82118682               -0.47238472               -0.09512980               
0.00000000                -0.11979122               -0.00165618               
-0.00508184               -0.15073143               -0.00508184               
-0.01196295               -0.15579641               -0.00711509               
0.01065572                -0.01468730               0.00124339                
0.01048493                0.06278737                0.00533018                
-0.09260859               -0.08159471               -0.01794579               
-0.36268193               -0.36268193               -0.05820001               
-0.62416662               -0.53560841               -0.08889716               
-0.75275768               -0.57103333               -0.09578104               
-0.79327778               -0.55046753               -0.09250019               
-0.79073595               -0.54004136               -0.09074155               
0.00000000                -0.01400056               -0.00600328               
-0.00600589               0.01917166                -0.00600589               
-0.01501634               0.06178750                -0.00619048               
-0.04794334               -0.01613755               -0.01537844               
-0.15572512               -0.23454127               -0.03665819               
-0.34155947               -0.47200246               -0.06583743               
-0.53560841               -0.62416662               -0.08889716               
-0.66282743               -0.66282743               -0.09549542               
-0.72454631               -0.63948296               -0.09233753               
-0.75801348               -0.61010084               -0.08803594               
-0.75877302               -0.59756239               -0.08618160               
0.00000000                -0.22372195               -0.03066312               
-0.03473961               -0.26730308               -0.03473961               
-0.09480113               -0.38143621               -0.04648892               
-0.19627845               -0.53080270               -0.06401814               
-0.33221924               -0.66819177               -0.08216745               
-0.46853732               -0.74500445               -0.09377176               
-0.57103333               -0.75275768               -0.09578104               
-0.63948296               -0.72454631               -0.09233753               
-0.68933983               -0.68933983               -0.08766136               
-0.72336847               -0.65887538               -0.08360147               
-0.72762058               -0.64496630               -0.08180280               
0.00000000                -0.77777523               -0.08521294               
-0.08715612               -0.79077357               -0.08715612               
-0.18371120               -0.82008715               -0.09183810               
-0.28877463               -0.84380317               -0.09639378               
-0.39076320               -0.84538373               -0.09804449               
-0.47851295               -0.82509533               -0.09627030               
-0.55046753               -0.79327778               -0.09250019               
-0.61010084               -0.75801348               -0.08803594               
-0.65887538               -0.72336847               -0.08360147               
-0.69399038               -0.69399038               -0.07987246               
-0.70202393               -0.67898724               -0.07817257               
0.00000000                -0.89069110               -0.10375184               
-0.10371347               -0.88892194               -0.10371347               
-0.20627793               -0.88242428               -0.10325282               
-0.30436733               -0.86901148               -0.10174492               
-0.39381874               -0.84806123               -0.09894888               
-0.47238472               -0.82118682               -0.09512980               
-0.54004136               -0.79073595               -0.09074155               
-0.59756239               -0.75877302               -0.08618160               
-0.64496630               -0.72762058               -0.08180280               
-0.67898724               -0.70202393               -0.07817257               
-0.68831308               -0.68831308               -0.07658202               
0.00000000                0.00000000                -0.09483495               
0.01058892                0.00000000                -0.01893837               
0.02868529                0.00000000                0.02868529                
-0.07048540               0.00000000                -0.00958673               
-0.03040053               0.00000000                0.00424549                
-0.00569182               0.00000000                -0.00107918               
-0.16991456               0.00000000                -0.01467785               
0.05557426                0.00000000                -0.01486519               
-0.34521204               0.00000000                -0.08704010               
-0.81164775               0.00000000                -0.18095308               