# vtk DataFile Version 2.0
Mesh for Fierro
ASCII
DATASET UNSTRUCTURED_GRID

POINTS 2197 float
0.00000000                0.00000000                0.00000000                
0.55317596                0.00000000                0.00000000                
0.62872185                0.00000000                0.00000000                
0.71837806                0.00000000                0.00000000                
0.79045135                0.00000000                0.00000000                
0.85232012                0.00000000                0.00000000                
0.90555902                0.00000000                0.00000000                
0.95099597                0.00000000                0.00000000                
0.98955513                0.00000000                0.00000000                
1.02283684                0.00000000                0.00000000                
1.05059035                0.00000000                0.00000000                
1.10551859                0.00000000                0.00000000                
1.20008650                0.00000000                0.00000000                
0.00000000                0.55317596                0.00000000                
0.43263436                0.43263436                0.00000000                
0.61737031                0.26313722                0.00000000                
0.70916395                0.21147942                0.00000000                
0.78352691                0.17616888                0.00000000                
0.84651724                0.15369434                0.00000000                
0.90048844                0.13802450                0.00000000                
0.94645124                0.12644949                0.00000000                
0.98537572                0.11745779                0.00000000                
1.01903436                0.11005745                0.00000000                
1.04735663                0.10356997                0.00000000                
1.10491405                0.10033511                0.00000000                
1.20007238                0.10000378                0.00000000                
0.00000000                0.62872185                0.00000000                
0.26313722                0.61737031                0.00000000                
0.53503216                0.53503216                0.00000000                
0.67535890                0.40943140                0.00000000                
0.76013842                0.34692496                0.00000000                
0.82828656                0.30320924                0.00000000                
0.88499006                0.27272059                0.00000000                
0.93269233                0.25030717                0.00000000                
0.97283597                0.23271537                0.00000000                
1.00762259                0.21812266                0.00000000                
1.03850920                0.20582385                0.00000000                
1.10342497                0.20046557                0.00000000                
1.20004179                0.20000438                0.00000000                
0.00000000                0.71837806                0.00000000                
0.21147942                0.70916395                0.00000000                
0.40943140                0.67535890                0.00000000                
0.60230480                0.60230480                0.00000000                
0.71747116                0.50454444                0.00000000                
0.79597263                0.44503746                0.00000000                
0.85837314                0.40146440                0.00000000                
0.90957213                0.36913128                0.00000000                
0.95254950                0.34381994                0.00000000                
0.98863936                0.32248716                0.00000000                
1.02641726                0.30605106                0.00000000                
1.10179802                0.30036425                0.00000000                
1.20001591                0.30000251                0.00000000                
0.00000000                0.79045135                0.00000000                
0.17616888                0.78352691                0.00000000                
0.34692496                0.76013842                0.00000000                
0.50454444                0.71747116                0.00000000                
0.65309654                0.65309654                0.00000000                
0.75065285                0.57465037                0.00000000                
0.82167518                0.52148217                0.00000000                
0.87828917                0.48081893                0.00000000                
0.92503148                0.44882878                0.00000000                
0.96383399                0.42187455                0.00000000                
1.01448973                0.40447954                0.00000000                
1.10066689                0.40017849                0.00000000                
1.20000366                0.40000078                0.00000000                
0.00000000                0.85232012                0.00000000                
0.15369434                0.84651724                0.00000000                
0.30320924                0.82828656                0.00000000                
0.44503746                0.79597263                0.00000000                
0.57465037                0.75065285                0.00000000                
0.69391919                0.69391919                0.00000000                
0.77727996                0.62996598                0.00000000                
0.84079258                0.58365829                0.00000000                
0.89153561                0.54597401                0.00000000                
0.93768841                0.51652710                0.00000000                
1.00583667                0.50228104                0.00000000                
1.10015882                0.50005274                0.00000000                
1.20000043                0.50000012                0.00000000                
0.00000000                0.90555902                0.00000000                
0.13802450                0.90048844                0.00000000                
0.27272059                0.88499006                0.00000000                
0.40146440                0.85837314                0.00000000                
0.52148217                0.82167518                0.00000000                
0.62996598                0.77727996                0.00000000                
0.72790879                0.72790879                0.00000000                
0.79916952                0.67543678                0.00000000                
0.85552104                0.63503692                0.00000000                
0.91642258                0.60896254                0.00000000                
1.00152591                0.60072232                0.00000000                
1.10002072                0.60000832                0.00000000                
1.20000002                0.60000001                0.00000000                
0.00000000                0.95099597                0.00000000                
0.12644949                0.94645124                0.00000000                
0.25030717                0.93269233                0.00000000                
0.36913128                0.90957213                0.00000000                
0.48081893                0.87828917                0.00000000                
0.58365829                0.84079258                0.00000000                
0.67543678                0.79916952                0.00000000                
0.75643400                0.75643400                0.00000000                
0.82441007                0.71927358                0.00000000                
0.90453232                0.70301300                0.00000000                
1.00021634                0.70012203                0.00000000                
1.10000115                0.70000055                0.00000000                
1.20000000                0.70000000                0.00000000                
0.00000000                0.98955513                0.00000000                
0.11745779                0.98537572                0.00000000                
0.23271537                0.97283597                0.00000000                
0.34381994                0.95254950                0.00000000                
0.44882878                0.92503148                0.00000000                
0.54597401                0.89153561                0.00000000                
0.63503692                0.85552104                0.00000000                
0.71927358                0.82441007                0.00000000                
0.80614577                0.80614577                0.00000000                
0.90062403                0.80050382                0.00000000                
1.00001250                0.80000841                0.00000000                
1.10000002                0.80000001                0.00000000                
1.20000000                0.80000000                0.00000000                
0.00000000                1.02283684                0.00000000                
0.11005745                1.01903436                0.00000000                
0.21812266                1.00762259                0.00000000                
0.32248716                0.98863936                0.00000000                
0.42187455                0.96383399                0.00000000                
0.51652710                0.93768841                0.00000000                
0.60896254                0.91642258                0.00000000                
0.70301300                0.90453232                0.00000000                
[...]
POINT_DATA 2197
VECTORS velocity float
0.00000000                0.00000000                0.00000000                
0.15790035                0.00000000                0.00000000                
0.16654646                0.00000000                0.00000000                
0.19615329                0.00000000                0.00000000                
0.21712836                0.00000000                0.00000000                
0.23897610                0.00000000                0.00000000                
0.26158240                0.00000000                0.00000000                
0.28418471                0.00000000                0.00000000                
0.31127791                0.00000000                0.00000000                
0.31921594                0.00000000                0.00000000                
0.33015581                0.00000000                0.00000000                
0.08393359                0.00000000                0.00000000                
0.00274141                0.00000000                0.00000000                
0.00000000                0.15790035                0.00000000                
0.11912101                0.11912101                0.00000000                
0.17156381                0.07456427                0.00000000                
0.19416397                0.06365859                0.00000000                
0.21636898                0.05314920                0.00000000                
0.23836169                0.04537858                0.00000000                
0.26122345                0.03923591                0.00000000                
0.28394198                0.03468228                0.00000000                
0.31007730                0.03166499                0.00000000                
0.32132746                0.03018344                0.00000000                
0.31906615                0.02499227                0.00000000                
0.07621356                0.00538073                0.00000000                
0.00231927                0.00012659                0.00000000                
0.00000000                0.16654646                0.00000000                
0.07456427                0.17156381                0.00000000                
0.15024637                0.15024637                0.00000000                
0.18917259                0.11701852                0.00000000                
0.21239990                0.10269556                0.00000000                
0.23598337                0.08853277                0.00000000                
0.25937234                0.07709790                0.00000000                
0.28288205                0.06855850                0.00000000                
0.30592665                0.06218858                0.00000000                
0.32690066                0.05931652                0.00000000                
0.28586152                0.04373873                0.00000000                
0.05627187                0.00791707                0.00000000                
0.00138299                0.00015066                0.00000000                
0.00000000                0.19615329                0.00000000                
0.06365859                0.19416397                0.00000000                
0.11701852                0.18917259                0.00000000                
0.17106321                0.17106321                0.00000000                
0.20468370                0.14427542                0.00000000                
0.22988119                0.12847472                0.00000000                
0.25503632                0.11306174                0.00000000                
0.27966329                0.10131672                0.00000000                
0.29992240                0.09177537                0.00000000                
0.32895625                0.08805648                0.00000000                
0.22707539                0.05253816                0.00000000                
0.03238945                0.00678527                0.00000000                
0.00055511                0.00009053                0.00000000                
0.00000000                0.21712836                0.00000000                
0.05314920                0.21636898                0.00000000                
0.10269556                0.21239990                0.00000000                
0.14427542                0.20468370                0.00000000                
0.18835465                0.18835465                0.00000000                
0.21984136                0.16408949                0.00000000                
0.24731027                0.14780857                0.00000000                
0.27180407                0.13218813                0.00000000                
0.29700891                0.12323309                0.00000000                
0.30654025                0.10870277                0.00000000                
0.14995508                0.04702828                0.00000000                
0.01354147                0.00373866                0.00000000                
0.00013788                0.00003005                0.00000000                
0.00000000                0.23897610                0.00000000                
0.04537858                0.23836169                0.00000000                
0.08853277                0.23598337                0.00000000                
0.12847472                0.22988119                0.00000000                
0.16408949                0.21984136                0.00000000                
0.20358360                0.20358360                0.00000000                
0.23461728                0.18005838                0.00000000                
0.26161954                0.16323078                0.00000000                
0.29227362                0.15238576                0.00000000                
0.24441196                0.10863317                0.00000000                
0.07478331                0.02981225                0.00000000                
0.00372302                0.00126746                0.00000000                
0.00001815                0.00000503                0.00000000                
0.00000000                0.26158240                0.00000000                
0.03923591                0.26122345                0.00000000                
0.07709790                0.25937234                0.00000000                
0.11306174                0.25503632                0.00000000                
0.14780857                0.24731027                0.00000000                
0.18005838                0.23461728                0.00000000                
0.21526185                0.21526185                0.00000000                
0.25271404                0.19705544                0.00000000                
0.25649659                0.16466365                0.00000000                
0.14638033                0.08062244                0.00000000                
0.02462583                0.01189023                0.00000000                
0.00057917                0.00023619                0.00000000                
0.00000101                0.00000034                0.00000000                
0.00000000                0.28418471                0.00000000                
0.03468228                0.28394198                0.00000000                
0.06855850                0.28288205                0.00000000                
0.10131672                0.27966329                0.00000000                
0.13218813                0.27180407                0.00000000                
0.16323078                0.26161954                0.00000000                
0.19705544                0.25271404                0.00000000                
0.22278798                0.22278798                0.00000000                
0.17227065                0.13593320                0.00000000                
0.05572141                0.03746135                0.00000000                
0.00447444                0.00255439                0.00000000                
0.00003928                0.00001899                0.00000000                
0.00000002                0.00000001                0.00000000                
0.00000000                0.31127791                0.00000000                
0.03166499                0.31007730                0.00000000                
0.06218858                0.30592665                0.00000000                
0.09177537                0.29992240                0.00000000                
0.12323309                0.29700891                0.00000000                
0.15238576                0.29227362                0.00000000                
0.16466365                0.25649659                0.00000000                
0.13593320                0.17227065                0.00000000                
0.06649861                0.06649861                0.00000000                
0.01071964                0.00868765                0.00000000                
0.00033605                0.00022773                0.00000000                
0.00000084                0.00000048                0.00000000                
0.00000000                0.00000000                0.00000000                
0.00000000                0.31921594                0.00000000                
0.03018344                0.32132746                0.00000000                
0.05931652                0.32690066                0.00000000                
0.08805648                0.32895625                0.00000000                
0.10870277                0.30654025                0.00000000                
0.10863317                0.24441196                0.00000000                
0.08062244                0.14638033                0.00000000                
0.03746135                0.05572141                0.00000000                
0.00868765                0.01071964                0.00000000                
0.00067931                0.00067931                0.00000000                
0.00000692                0.00000562                0.00000000                
0.00000000                0.00000000                0.00000000                
0.00000000                0.00000000                0.00000000                
0.00000000                0.33015581                0.00000000                
0.02499227                0.31906615                0.00000000                
0.04373873                0.28586152                0.00000000                
0.05253816                0.22707539                0.00000000                
0.04702828                0.14995508                0.00000000                
0.02981225                0.07478331                0.00000000                
0.01189023                0.02462583                0.00000000                
0.00255439                0.00447444                0.00000000                
0.00022773                0.00033605                0.00000000                
0.00000562                0.00000692                0.00000000                
0.00000002                0.00000002                0.00000000                
0.00000000                0.00000000                0.00000000                
0.00000000                0.00000000                0.00000000                
0.00000000                0.08393359                0.00000000                
0.00538073                0.07621356                0.00000000                
0.00791707                0.05627187                0.00000000                
0.00678527                0.03238945                0.00000000                
0.00373866                0.01354147                0.00000000                
0.00126746                0.00372302                0.00000000                
0.00023619                0.00057917                0.00000000                
0.00001899                0.00003928                0.00000000                
0.00000048                0.00000084                0.00000000                
0.00000000                0.00000000                0.00000000                
0.00000000                0.00000000                0.00000000                
0.00000000                0.00000000                0.00000000                
0.00000000                0.00000000                0.00000000                
0.00000000                0.00274141                0.00000000                
0.00012659                0.00231927                0.00000000                
0.00015066                0.00138299                0.00000000                
0.00009053                0.00055511                0.00000000                
0.00003005                0.00013788                0.00000000                
0.00000503                0.00001815                0.00000000                
0.00000034                0.00000101                0.00000000                
0.00000001                0.00000002                0.00000000                
0.00000000                0.00000000                0.00000000                
0.00000000                0.00000000                0.00000000                
0.00000000                0.00000000                0.00000000                
0.00000000                0.00000000                0.00000000                
0.00000000                0.00000000                0.00000000                
0.00000000                0.00000000                0.15790035                
0.11912101                0.00000000                0.11912101                
0.17156381                0.00000000                0.07456427                
0.19416397                0.00000000                0.06365859                
0.21636898                0.00000000                0.05314920                
0.23836169                0.00000000                0.04537858                
0.26122345                0.00000000                0.03923591                
0.28394198                0.00000000                0.03468228                
0.31007730                0.00000000                0.03166499                
0.32132746                0.00000000                0.03018344                
0.31906615                0.00000000                0.02499227                
0.07621356                0.00000000                0.00538073                
0.00231927                0.00000000                0.00012659                
0.00000000                0.11912101                0.11912101                
0.10564691                0.10564691                0.10564691                
0.16830711                0.07892181                0.07892181                
0.19245876                0.06159847                0.06159847                
0.21550083                0.05261616                0.05261616                
0.23769153                0.04504806                0.04504806                
0.26075825                0.03903335                0.03903335                
0.28368509                0.03456596                0.03456596                
0.30876454                0.03146901                0.03146901                
0.32342308                0.02989168                0.02989168                
0.30802002                0.02386049                0.02386049                
0.06906075                0.00486744                0.00486744                
0.00195861                0.00010652                0.00010652                
0.00000000                0.17156381                0.07456427                
0.07892181                0.16830711                0.07892181                
0.14356909                0.14356909                0.07319884                
0.18643931                0.11804612                0.06083126                
0.21131357                0.10148723                0.05079418                
0.23508613                0.08792733                0.04410239                
0.25872078                0.07673337                0.03844110                
0.28250457                0.06837267                0.03425003                
0.30454089                0.06191299                0.03098105                
0.32838394                0.05938635                0.02970770                
0.27410301                0.04195367                0.02094536                
0.05067213                0.00711629                0.00355166                
0.00116183                0.00012618                0.00006251                
0.00000000                0.19416397                0.06365859                
0.06159847                0.19245876                0.06159847                
0.11804612                0.18643931                0.06083126                
0.16758242                0.16758242                0.05702419                
0.20286165                0.14461789                0.04966158                
0.22883485                0.12771618                0.04265122                
0.25426547                0.11269954                0.03765749                
0.27887668                0.10099640                0.03371079                
0.29931596                0.09171089                0.03058428                
0.32780457                0.08750766                0.02923753                
0.21537541                0.04990712                0.01654647                
0.02886303                0.00603480                0.00200193                
0.00046215                0.00007520                0.00002442                
0.00000000                0.21636898                0.05314920                
0.05261616                0.21550083                0.05261616                
0.10148723                0.21131357                0.05079418                
0.14461789                0.20286165                0.04966158                
0.18603988                0.18603988                0.04678047                
0.21857661                0.16428591                0.04173214                
0.24638774                0.14744068                0.03681375                
0.27074656                0.13186272                0.03293702                
0.29724177                0.12350012                0.03068301                
0.30110831                0.10667205                0.02649013                
0.14018339                0.04402520                0.01090188                
0.01189729                0.00327835                0.00081108                
0.00011318                0.00002466                0.00000584                
0.00000000                0.23836169                0.04537858                
0.04504806                0.23769153                0.04504806                
0.08792733                0.23508613                0.04410239                
0.12771618                0.22883485                0.04265122                
0.16428591                0.21857661                0.04173214                
0.20218028                0.20218028                0.03980964                
0.23333601                0.18002621                0.03609092                
0.26132933                0.16343012                0.03245433                
0.29109449                0.15183289                0.03030225                
0.23576687                0.10492858                0.02069327                
0.06859333                0.02735951                0.00539842                
0.00321328                0.00109252                0.00021349                
0.00001467                0.00000406                0.00000073                
0.00000000                0.26122345                0.03923591                
0.03903335                0.26075825                0.03903335                
0.07673337                0.25872078                0.03844110                
0.11269954                0.25426547                0.03765749                
0.14744068                0.24638774                0.03681375                