# vtk DataFile Version 2.0
Mesh for Fierro
ASCII
DATASET UNSTRUCTURED_GRID

POINTS 2197 float
0.00000000                0.00000000                0.00000000                
0.49757855                0.00000000                0.00000000                
0.53107530                0.00000000                0.00000000                
0.61884298                0.00000000                0.00000000                
0.69317236                0.00000000                0.00000000                
0.76611578                0.00000000                0.00000000                
0.84297461                0.00000000                0.00000000                
0.89059622                0.00000000                0.00000000                
0.93342035                0.00000000                0.00000000                
0.98075140                0.00000000                0.00000000                
1.00853411                0.00000000                0.00000000                
1.10006517                0.00000000                0.00000000                
1.20000001                0.00000000                0.00000000                
0.00000000                0.49757855                0.00000000                
0.39595301                0.39595301                0.00000000                
0.55167805                0.27189577                0.00000000                
0.62894736                0.21693929                0.00000000                
0.70065996                0.17732266                0.00000000                
0.77112549                0.15482278                0.00000000                
0.84173053                0.14041137                0.00000000                
0.88520787                0.12735313                0.00000000                
0.93237960                0.11825295                0.00000000                
0.97137066                0.10846348                0.00000000                
1.00705897                0.10070084                0.00000000                
1.10005103                0.10000329                0.00000000                
1.20000001                0.10000000                0.00000000                
0.00000000                0.53107530                0.00000000                
0.27189577                0.55167805                0.00000000                
0.49481526                0.49481526                0.00000000                
0.61943218                0.39811627                0.00000000                
0.69528976                0.33499852                0.00000000                
0.76733124                0.29563371                0.00000000                
0.82443784                0.26937908                0.00000000                
0.86917115                0.24795578                0.00000000                
0.92090868                0.23188170                0.00000000                
0.94671483                0.21117043                0.00000000                
1.00382370                0.20075589                0.00000000                
1.10002348                0.20000311                0.00000000                
1.20000000                0.20000000                0.00000000                
0.00000000                0.61884298                0.00000000                
0.21693929                0.62894736                0.00000000                
0.39811627                0.61943218                0.00000000                
0.55444034                0.55444034                0.00000000                
0.66184942                0.47470537                0.00000000                
0.73656137                0.42358925                0.00000000                
0.79058389                0.38427682                0.00000000                
0.84610090                0.35875364                0.00000000                
0.89129645                0.33342199                0.00000000                
0.92259213                0.30763684                0.00000000                
1.00125619                0.30035799                0.00000000                
1.10000554                0.30000115                0.00000000                
1.20000000                0.30000000                0.00000000                
0.00000000                0.69317236                0.00000000                
0.17732266                0.70065996                0.00000000                
0.33499852                0.69528976                0.00000000                
0.47470537                0.66184942                0.00000000                
0.60527944                0.60527944                0.00000000                
0.69076838                0.53458256                0.00000000                
0.75510430                0.49155733                0.00000000                
0.81609925                0.45999413                0.00000000                
0.85278975                0.42453094                0.00000000                
0.90807622                0.40340321                0.00000000                
1.00024504                0.40008808                0.00000000                
1.10000051                0.40000015                0.00000000                
1.20000000                0.40000000                0.00000000                
0.00000000                0.76611578                0.00000000                
0.15482278                0.77112549                0.00000000                
0.29563371                0.76733124                0.00000000                
0.42358925                0.73656137                0.00000000                
0.53458256                0.69076838                0.00000000                
0.63715933                0.63715933                0.00000000                
0.71794111                0.58791198                0.00000000                
0.77145885                0.54616444                0.00000000                
0.82018154                0.51151186                0.00000000                
0.90183755                0.50091570                0.00000000                
1.00002625                0.50001129                0.00000000                
1.10000002                0.50000001                0.00000000                
1.20000000                0.50000000                0.00000000                
0.00000000                0.84297461                0.00000000                
0.14041137                0.84173053                0.00000000                
0.26937908                0.82443784                0.00000000                
0.38427682                0.79058389                0.00000000                
0.49155733                0.75510430                0.00000000                
0.58791198                0.71794111                0.00000000                
0.67035303                0.67035303                0.00000000                
0.72785573                0.62173687                0.00000000                
0.80468955                0.60317337                0.00000000                
0.90020391                0.60011921                0.00000000                
1.00000113                0.60000057                0.00000000                
1.10000000                0.60000000                0.00000000                
1.20000000                0.60000000                0.00000000                
0.00000000                0.89059622                0.00000000                
0.12735313                0.88520787                0.00000000                
0.24795578                0.86917115                0.00000000                
0.35875364                0.84610090                0.00000000                
0.45999413                0.81609925                0.00000000                
0.54616444                0.77145885                0.00000000                
0.62173687                0.72785573                0.00000000                
0.70606151                0.70606151                0.00000000                
0.80048441                0.70038645                0.00000000                
0.90000869                0.70000592                0.00000000                
1.00000001                0.70000001                0.00000000                
1.10000000                0.70000000                0.00000000                
1.20000000                0.70000000                0.00000000                
0.00000000                0.93342035                0.00000000                
0.11825295                0.93237960                0.00000000                
0.23188170                0.92090868                0.00000000                
0.33342199                0.89129645                0.00000000                
0.42453094                0.85278975                0.00000000                
0.51151186                0.82018154                0.00000000                
0.60317337                0.80468955                0.00000000                
0.70038645                0.80048441                0.00000000                
0.80001728                0.80001728                0.00000000                
0.90000008                0.80000006                0.00000000                
1.00000000                0.80000000                0.00000000                
1.10000000                0.80000000                0.00000000                
1.20000000                0.80000000                0.00000000                
0.00000000                0.98075140                0.00000000                
0.10846348                0.97137066                0.00000000                
0.21117043                0.94671483                0.00000000                
0.30763684                0.92259213                0.00000000                
0.40340321                0.90807622                0.00000000                
0.50091570                0.90183755                0.00000000                
0.60011921                0.90020391                0.00000000                
0.70000592                0.90000869                0.00000000                
[...]
POINT_DATA 2197
VECTORS velocity float
0.00000000                0.00000000                0.00000000                
0.09766305                0.00000000                0.00000000                
0.16929662                0.00000000                0.00000000                
0.09816013                0.00000000                0.00000000                
0.18530258                0.00000000                0.00000000                
0.12907870                0.00000000                0.00000000                
0.15222460                0.00000000                0.00000000                
0.33608041                0.00000000                0.00000000                
0.15474041                0.00000000                0.00000000                
0.39190663                0.00000000                0.00000000                
0.11954782                0.00000000                0.00000000                
0.00188256                0.00000000                0.00000000                
0.00000038                0.00000000                0.00000000                
0.00000000                0.09766305                0.00000000                
0.09112542                0.09112542                0.00000000                
0.16029073                0.08810659                0.00000000                
0.12315027                0.08115370                0.00000000                
0.18891806                0.06735718                0.00000000                
0.14402780                0.05007529                0.00000000                
0.19510935                0.05207875                0.00000000                
0.31051616                0.04944178                0.00000000                
0.16486838                0.02848046                0.00000000                
0.38895062                0.04797836                0.00000000                
0.10084103                0.01107822                0.00000000                
0.00148809                0.00010373                0.00000000                
0.00000029                0.00000001                0.00000000                
0.00000000                0.16929662                0.00000000                
0.08810659                0.16029073                0.00000000                
0.12833447                0.12833447                0.00000000                
0.16789467                0.13307679                0.00000000                
0.17640997                0.10686954                0.00000000                
0.17975567                0.08405257                0.00000000                
0.25516702                0.09285334                0.00000000                
0.23606788                0.06959312                0.00000000                
0.24805991                0.07512958                0.00000000                
0.33411183                0.08172305                0.00000000                
0.05834002                0.01251291                0.00000000                
0.00070577                0.00010027                0.00000000                
0.00000012                0.00000001                0.00000000                
0.00000000                0.09816013                0.00000000                
0.08115370                0.12315027                0.00000000                
0.13307679                0.16789467                0.00000000                
0.16677680                0.16677680                0.00000000                
0.15632530                0.12968357                0.00000000                
0.22165644                0.13275711                0.00000000                
0.24409979                0.11502818                0.00000000                
0.19458299                0.08207251                0.00000000                
0.32929456                0.12600050                0.00000000                
0.20869991                0.07246411                0.00000000                
0.02175687                0.00652072                0.00000000                
0.00017693                0.00003859                0.00000000                
0.00000002                0.00000000                0.00000000                
0.00000000                0.18530258                0.00000000                
0.06735718                0.18891806                0.00000000                
0.10686954                0.17640997                0.00000000                
0.12968357                0.15632530                0.00000000                
0.16386492                0.16386492                0.00000000                
0.23048447                0.17164479                0.00000000                
0.19042150                0.11897298                0.00000000                
0.25411718                0.14138649                0.00000000                
0.31252545                0.14747692                0.00000000                
0.09327119                0.04045245                0.00000000                
0.00500877                0.00185769                0.00000000                
0.00001847                0.00000548                0.00000000                
0.00000000                0.00000000                0.00000000                
0.00000000                0.12907870                0.00000000                
0.05007529                0.14402780                0.00000000                
0.08405257                0.17975567                0.00000000                
0.13275711                0.22165644                0.00000000                
0.17164479                0.23048447                0.00000000                
0.17445287                0.17445287                0.00000000                
0.20178487                0.16081472                0.00000000                
0.28953384                0.19352975                0.00000000                
0.17194500                0.10055272                0.00000000                
0.02753161                0.01406926                0.00000000                
0.00065474                0.00028711                0.00000000                
0.00000073                0.00000027                0.00000000                
0.00000000                0.00000000                0.00000000                
0.00000000                0.15222460                0.00000000                
0.05207875                0.19510935                0.00000000                
0.09285334                0.25516702                0.00000000                
0.11502818                0.24409979                0.00000000                
0.11897298                0.19042150                0.00000000                
0.16081472                0.20178487                0.00000000                
0.23656506                0.23656506                0.00000000                
0.19815450                0.15572209                0.00000000                
0.05450403                0.03771792                0.00000000                
0.00390964                0.00232750                0.00000000                
0.00003538                0.00001797                0.00000000                
0.00000001                0.00000000                0.00000000                
0.00000000                0.00000000                0.00000000                
0.00000000                0.33608041                0.00000000                
0.04944178                0.31051616                0.00000000                
0.06959312                0.23606788                0.00000000                
0.08207251                0.19458299                0.00000000                
0.14138649                0.25411718                0.00000000                
0.19352975                0.28953384                0.00000000                
0.15572209                0.19815450                0.00000000                
0.06303014                0.06303014                0.00000000                
0.00803571                0.00645709                0.00000000                
0.00021725                0.00014962                0.00000000                
0.00000049                0.00000029                0.00000000                
0.00000000                0.00000000                0.00000000                
0.00000000                0.00000000                0.00000000                
0.00000000                0.15474041                0.00000000                
0.02848046                0.16486838                0.00000000                
0.07512958                0.24805991                0.00000000                
0.12600050                0.32929456                0.00000000                
0.14747692                0.31252545                0.00000000                
0.10055272                0.17194500                0.00000000                
0.03771792                0.05450403                0.00000000                
0.00645709                0.00803571                0.00000000                
0.00038992                0.00038992                0.00000000                
0.00000273                0.00000219                0.00000000                
0.00000000                0.00000000                0.00000000                
0.00000000                0.00000000                0.00000000                
0.00000000                0.00000000                0.00000000                
0.00000000                0.39190663                0.00000000                
0.04797836                0.38895062                0.00000000                
0.08172305                0.33411183                0.00000000                
0.07246411                0.20869991                0.00000000                
0.04045245                0.09327119                0.00000000                
0.01406926                0.02753161                0.00000000                
0.00232750                0.00390964                0.00000000                
0.00014962                0.00021725                0.00000000                
0.00000219                0.00000273                0.00000000                
0.00000000                0.00000000                0.00000000                
0.00000000                0.00000000                0.00000000                
0.00000000                0.00000000                0.00000000                
0.00000000                0.00000000                0.00000000                
0.00000000                0.11954782                0.00000000                
0.01107822                0.10084103                0.00000000                
0.01251291                0.05834002                0.00000000                
0.00652072                0.02175687                0.00000000                
0.00185769                0.00500877                0.00000000                
0.00028711                0.00065474                0.00000000                
0.00001797                0.00003538                0.00000000                
0.00000029                0.00000049                0.00000000                
0.00000000                0.00000000                0.00000000                
0.00000000                0.00000000                0.00000000                
0.00000000                0.00000000                0.00000000                
0.00000000                0.00000000                0.00000000                
0.00000000                -0.00000000               0.00000000                
0.00000000                0.00188256                0.00000000                
0.00010373                0.00148809                0.00000000                
0.00010027                0.00070577                0.00000000                
0.00003859                0.00017693                0.00000000                
0.00000548                0.00001847                0.00000000                
0.00000027                0.00000073                0.00000000                
0.00000000                0.00000001                0.00000000                
0.00000000                0.00000000                0.00000000                
0.00000000                0.00000000                0.00000000                
0.00000000                0.00000000                0.00000000                
0.00000000                0.00000000                0.00000000                
0.00000000                0.00000000                0.00000000                
0.00000000                0.00000000                0.00000000                
0.00000000                0.00000038                0.00000000                
0.00000001                0.00000029                0.00000000                
0.00000001                0.00000012                0.00000000                
0.00000000                0.00000002                0.00000000                
0.00000000                0.00000000                0.00000000                
0.00000000                0.00000000                0.00000000                
0.00000000                0.00000000                0.00000000                
0.00000000                0.00000000                0.00000000                
0.00000000                0.00000000                0.00000000                
-0.00000000               0.00000000                0.00000000                
0.00000000                0.00000000                0.00000000                
0.00000000                0.00000000                0.00000000                
0.00000000                0.00000000                0.00000000                
0.00000000                0.00000000                0.09766305                
0.09112542                0.00000000                0.09112542                
0.16029073                0.00000000                0.08810659                
0.12315027                0.00000000                0.08115370                
0.18891806                0.00000000                0.06735718                
0.14402780                0.00000000                0.05007529                
0.19510935                0.00000000                0.05207875                
0.31051616                0.00000000                0.04944178                
0.16486838                0.00000000                0.02848046                
0.38895062                0.00000000                0.04797836                
0.10084103                0.00000000                0.01107822                
0.00148809                0.00000000                0.00010373                
0.00000029                0.00000000                0.00000001                
0.00000000                0.09112542                0.09112542                
0.08970232                0.08970232                0.08970232                
0.14645742                0.08130178                0.08130178                
0.14175961                0.07534683                0.07534683                
0.18773534                0.06235476                0.06235476                
0.15683152                0.04600447                0.04600447                
0.22600556                0.05048551                0.05048551                
0.28270907                0.04417079                0.04417079                
0.18655396                0.03120305                0.03120305                
0.37790712                0.04625603                0.04625603                
0.08487877                0.00922784                0.00922784                
0.00117268                0.00008150                0.00008150                
0.00000021                0.00000001                0.00000001                
0.00000000                0.16029073                0.08810659                
0.08130178                0.14645742                0.08130178                
0.12687382                0.12687382                0.07093652                
0.17057609                0.12957711                0.06707446                
0.17210325                0.10132626                0.05103551                
0.18996871                0.08432837                0.04197592                
0.25964667                0.08992684                0.04501419                
0.22154538                0.06438320                0.03252494                
0.27489647                0.07935441                0.03913675                
0.30773307                0.07426184                0.03607248                
0.04883690                0.01033149                0.00506779                
0.00055085                0.00007797                0.00003780                
0.00000009                0.00000001                0.00000000                
0.00000000                0.12315027                0.08115370                
0.07534683                0.14175961                0.07534683                
0.12957711                0.17057609                0.06707446                
0.16019208                0.16019208                0.05634907                
0.15698780                0.12827413                0.04324489                
0.22782799                0.13365711                0.04355002                
0.23608830                0.11054067                0.03654545                
0.19702870                0.08317080                0.02773144                
0.33613598                0.12593078                0.04161993                
0.18754893                0.06436454                0.02068905                
0.01808061                0.00536641                0.00172001                
0.00013599                0.00002960                0.00000901                
0.00000002                0.00000000                0.00000000                
0.00000000                0.18891806                0.06735718                
0.06235476                0.18773534                0.06235476                
0.10132626                0.17210325                0.05103551                
0.12827413                0.15698780                0.04324489                
0.17130488                0.17130488                0.04344084                
0.22617172                0.16922187                0.04196924                
0.18638612                0.11632299                0.02876894                
0.26381562                0.14556127                0.03501913                
0.30081631                0.14125001                0.03369521                
0.08300776                0.03575188                0.00866162                
0.00412986                0.00152279                0.00035821                
0.00001417                0.00000419                0.00000087                
0.00000000                0.00000000                0.00000000                
0.00000000                0.14402780                0.05007529                
0.04600447                0.15683152                0.04600447                
0.08432837                0.18996871                0.04197592                
0.13365711                0.22782799                0.04355002                
0.16922187                0.22617172                0.04196924                
0.16754034                0.16754034                0.03238238                
0.20826869                0.16642781                0.03203612                
0.28882446                0.19152604                0.03615617                
0.15780911                0.09195549                0.01721894                
0.02384494                0.01213698                0.00230687                
0.00053206                0.00023233                0.00004180                
0.00000056                0.00000020                0.00000003                
0.00000000                0.00000000                0.00000000                
0.00000000                0.19510935                0.05207875                
0.05048551                0.22600556                0.05048551                
0.08992684                0.25964667                0.04501419                
0.11054067                0.23608830                0.03654545                
0.11632299                0.18638612                0.02876894                