# vtk DataFile Version 2.0
Mesh for Fierro
ASCII 
DATASET UNSTRUCTURED_GRID

POINTS 16611 float
0.000000 0.000000 0.000000
0.091291 0.000000 0.000000
0.182939 0.000000 0.000000
0.275172 0.000000 0.000000
0.368406 0.000000 0.000000
0.462652 0.000000 0.000000
0.558193 0.000000 0.000000
0.654778 0.000000 0.000000
0.752347 0.000000 0.000000
0.850560 0.000000 0.000000
0.949034 0.000000 0.000000
1.047762 0.000000 0.000000
1.146339 0.000000 0.000000
1.245065 0.000000 0.000000
1.343593 0.000000 0.000000
1.442774 0.000000 0.000000
1.541699 0.000000 0.000000
1.569876 0.000000 0.000000
1.596571 0.000000 0.000000
1.621707 0.000000 0.000000
1.646471 0.000000 0.000000
1.670691 0.000000 0.000000
1.694835 0.000000 0.000000
1.718810 0.000000 0.000000
1.743087 0.000000 0.000000
1.767699 0.000000 0.000000
1.793380 0.000000 0.000000
1.820475 0.000000 0.000000
1.849975 0.000000 0.000000
1.882794 0.000000 0.000000
1.919934 0.000000 0.000000
1.962765 0.000000 0.000000
2.011572 0.000000 0.000000
2.066593 0.000000 0.000000
2.125949 0.000000 0.000000
2.187685 0.000000 0.000000
2.250029 0.000000 0.000000
2.312506 0.000000 0.000000
2.375000 0.000000 0.000000
2.437500 0.000000 0.000000
2.500000 0.000000 0.000000
2.562500 0.000000 0.000000
2.625000 0.000000 0.000000
2.687500 0.000000 0.000000
2.750000 0.000000 0.000000
2.812500 0.000000 0.000000
2.875000 0.000000 0.000000
2.937500 0.000000 0.000000
3.000000 0.000000 0.000000
3.062500 0.000000 0.000000
3.125000 0.000000 0.000000
3.187500 0.000000 0.000000
3.250000 0.000000 0.000000
3.312500 0.000000 0.000000
3.375000 0.000000 0.000000
3.437500 0.000000 0.000000
3.500000 0.000000 0.000000
3.562500 0.000000 0.000000
3.625000 0.000000 0.000000
3.687500 0.000000 0.000000
3.750000 0.000000 0.000000
3.812500 0.000000 0.000000
3.875000 0.000000 0.000000
3.937500 0.000000 0.000000
4.000000 0.000000 0.000000
4.062500 0.000000 0.000000
4.125000 0.000000 0.000000
4.187500 0.000000 0.000000
4.250000 0.000000 0.000000
4.312500 0.000000 0.000000
4.375000 0.000000 0.000000
4.437500 0.000000 0.000000
4.500000 0.000000 0.000000
4.562500 0.000000 0.000000
4.625000 0.000000 0.000000
4.687500 0.000000 0.000000
4.750000 0.000000 0.000000
4.812500 0.000000 0.000000
4.875000 0.000000 0.000000
4.937500 0.000000 0.000000
5.000000 0.000000 0.000000
5.062500 0.000000 0.000000
5.125000 0.000000 0.000000
5.187500 0.000000 0.000000
5.250000 0.000000 0.000000
5.312500 0.000000 0.000000
5.375000 0.000000 0.000000
5.437500 0.000000 0.000000
5.500000 0.000000 0.000000
5.562500 0.000000 0.000000
5.625000 0.000000 0.000000
5.687500 0.000000 0.000000
5.750000 0.000000 0.000000
5.812500 0.000000 0.000000
5.875000 0.000000 0.000000
5.937500 0.000000 0.000000
6.000000 0.000000 0.000000
6.062500 0.000000 0.000000
6.125000 0.000000 0.000000
6.187500 0.000000 0.000000
6.250000 0.000000 0.000000
6.312500 0.000000 0.000000
6.375000 0.000000 0.000000
6.437500 0.000000 0.000000
6.500000 0.000000 0.000000
6.562500 0.000000 0.000000
6.625000 0.000000 0.000000
6.687500 0.000000 0.000000
6.750000 0.000000 0.000000
6.812500 0.000000 0.000000
6.875000 0.000000 0.000000
6.937500 0.000000 0.000000
7.000000 0.000000 0.000000
0.000000 0.062086 0.000000
0.091161 0.062070 0.000000
0.182722 0.062113 0.000000
0.274801 0.062113 0.000000
0.367997 0.062167 0.000000
0.462076 0.062186 0.000000
0.557625 0.062244 0.000000
0.654054 0.062288 0.000000
0.751665 0.062337 0.000000
0.849751 0.062402 0.000000
0.948288 0.062431 0.000000
1.046944 0.062498 0.000000
1.145538 0.062507 0.000000
1.244257 0.062530 0.000000
1.342812 0.062429 0.000000
1.441871 0.062338 0.000000
1.540440 0.062394 0.000000
1.568476 0.062784 0.000000
1.595163 0.063164 0.000000
1.620326 0.063298 0.000000
1.645111 0.063487 0.000000
1.669373 0.063606 0.000000
1.693607 0.063704 0.000000
1.717681 0.063744 0.000000
1.742116 0.063742 0.000000
1.766834 0.063695 0.000000
1.792705 0.063602 0.000000
1.819869 0.063490 0.000000
1.849582 0.063328 0.000000
1.882428 0.063185 0.000000
1.919792 0.062990 0.000000
1.962617 0.062857 0.000000
2.011598 0.062684 0.000000
2.066578 0.062599 0.000000
2.125978 0.062517 0.000000
2.187683 0.062507 0.000000
2.250032 0.062500 0.000000
2.312506 0.062500 0.000000
2.375001 0.062500 0.000000
2.437500 0.062500 0.000000
2.500000 0.062500 0.000000
2.562500 0.062500 0.000000
2.625000 0.062500 0.000000
2.687500 0.062500 0.000000
2.750000 0.062500 0.000000
2.812500 0.062500 0.000000
2.875000 0.062500 0.000000
2.937500 0.062500 0.000000
3.000000 0.062500 0.000000
3.062500 0.062500 0.000000
3.125000 0.062500 0.000000
3.187500 0.062500 0.000000
3.250000 0.062500 0.000000
3.312500 0.062500 0.000000
3.375000 0.062500 0.000000
3.437500 0.062500 0.000000
3.500000 0.062500 0.000000
3.562500 0.062500 0.000000
3.625000 0.062500 0.000000
3.687500 0.062500 0.000000
3.750000 0.062500 0.000000
3.812500 0.062500 0.000000
3.875000 0.062500 0.000000
3.937500 0.062500 0.000000
4.000000 0.062500 0.000000
4.062500 0.062500 0.000000
4.125000 0.062500 0.000000
4.187500 0.062500 0.000000
4.250000 0.062500 0.000000
4.312500 0.062500 0.000000
4.375000 0.062500 0.000000
4.437500 0.062500 0.000000
4.500000 0.062500 0.000000
4.562500 0.062500 0.000000
4.625000 0.062500 0.000000
4.687500 0.062500 0.000000
4.750000 0.062500 0.000000
4.812500 0.062500 0.000000
4.875000 0.062500 0.000000
4.937500 0.062500 0.000000
5.000000 0.062500 0.000000
5.062500 0.062500 0.000000
5.125000 0.062500 0.000000
5.187500 0.062500 0.000000
5.250000 0.062500 0.000000
5.312500 0.062500 0.000000
5.375000 0.062500 0.000000
5.437500 0.062500 0.000000
5.500000 0.062500 0.000000
5.562500 0.062500 0.000000
5.625000 0.062500 0.000000
5.687500 0.062500 0.000000
5.750000 0.062500 0.000000
5.812500 0.062500 0.000000
5.875000 0.062500 0.000000
5.937500 0.062500 0.000000
6.000000 0.062500 0.000000
6.062500 0.062500 0.000000
6.125000 0.062500 0.000000
6.187500 0.062500 0.000000
6.250000 0.062500 0.000000
6.312500 0.062500 0.000000
6.375000 0.062500 0.000000
6.437500 0.062500 0.000000
6.500000 0.062500 0.000000
6.562500 0.062500 0.000000
6.625000 0.062500 0.000000
6.687500 0.062500 0.000000
6.750000 0.062500 0.000000
6.812500 0.062500 0.000000
6.875000 0.062500 0.000000
6.937500 0.062500 0.000000
7.000000 0.062500 0.000000
0.000000 0.124416 0.000000
0.090492 0.124422 0.000000
0.181325 0.124450 0.000000
0.272865 0.124471 0.000000
0.365341 0.124516 0.000000
0.459052 0.124558 0.000000
0.553971 0.124624 0.000000
0.650213 0.124696 0.000000
0.747364 0.124779 0.000000
0.845387 0.124875 0.000000
0.943646 0.124943 0.000000
1.042236 0.125052 0.000000
1.140651 0.125104 0.000000
1.239233 0.125099 0.000000
1.337809 0.124850 0.000000
1.436877 0.124797 0.000000
1.535377 0.124956 0.000000
1.563411 0.125414 0.000000
1.590209 0.126033 0.000000
1.615524 0.126354 0.000000
1.640459 0.126654 0.000000
1.664909 0.126822 0.000000
1.689326 0.126898 0.000000
1.713646 0.126913 0.000000
1.738263 0.126825 0.000000
1.763292 0.126714 0.000000
1.789306 0.126513 0.000000
1.816881 0.126314 0.000000
1.846692 0.126049 0.000000
1.880106 0.125813 0.000000
1.917583 0.125549 0.000000
1.961177 0.125341 0.000000
2.010412 0.125163 0.000000
2.066130 0.125060 0.000000
2.125769 0.125015 0.000000
2.187654 0.125002 0.000000
2.250021 0.125001 0.000000
2.312504 0.125000 0.000000
2.375000 0.125000 0.000000
2.437500 0.125000 0.000000
2.500000 0.125000 0.000000
2.562500 0.125000 0.000000
2.625000 0.125000 0.000000
2.687500 0.125000 0.000000
2.750000 0.125000 0.000000
2.812500 0.125000 0.000000
2.875000 0.125000 0.000000
2.937500 0.125000 0.000000
3.000000 0.125000 0.000000
3.062500 0.125000 0.000000
3.125000 0.125000 0.000000
3.187500 0.125000 0.000000
3.250000 0.125000 0.000000
3.312500 0.125000 0.000000
3.375000 0.125000 0.000000
3.437500 0.125000 0.000000
3.500000 0.125000 0.000000
3.562500 0.125000 0.000000
3.625000 0.125000 0.000000
3.687500 0.125000 0.000000
3.750000 0.125000 0.000000
3.812500 0.125000 0.000000
3.875000 0.125000 0.000000
3.937500 0.125000 0.000000
4.000000 0.125000 0.000000
4.062500 0.125000 0.000000
4.125000 0.125000 0.000000
4.187500 0.125000 0.000000
4.250000 0.125000 0.000000
4.312500 0.125000 0.000000
4.375000 0.125000 0.000000
4.437500 0.125000 0.000000
4.500000 0.125000 0.000000
4.562500 0.125000 0.000000
4.625000 0.125000 0.000000
4.687500 0.125000 0.000000
4.750000 0.125000 0.000000
4.812500 0.125000 0.000000
4.875000 0.125000 0.000000
4.937500 0.125000 0.000000
5.000000 0.125000 0.000000
5.062500 0.125000 0.000000
5.125000 0.125000 0.000000
5.187500 0.125000 0.000000
5.250000 0.125000 0.000000
5.312500 0.125000 0.000000
5.375000 0.125000 0.000000
5.437500 0.125000 0.000000
5.500000 0.125000 0.000000
5.562500 0.125000 0.000000
5.625000 0.125000 0.000000
5.687500 0.125000 0.000000
5.750000 0.125000 0.000000
5.812500 0.125000 0.000000
5.875000 0.125000 0.000000
5.937500 0.125000 0.000000
6.000000 0.125000 0.000000
6.062500 0.125000 0.000000
6.125000 0.125000 0.000000
6.187500 0.125000 0.000000
6.250000 0.125000 0.000000
6.312500 0.125000 0.000000
6.375000 0.125000 0.000000
6.437500 0.125000 0.000000
6.500000 0.125000 0.000000
6.562500 0.125000 0.000000
6.625000 0.125000 0.000000
6.687500 0.125000 0.000000
6.750000 0.125000 0.000000
6.812500 0.125000 0.000000
6.875000 0.125000 0.000000
6.937500 0.125000 0.000000
7.000000 0.125000 0.000000
0.000000 0.186864 0.000000
0.090808 0.186870 0.000000
0.182033 0.186900 0.000000
0.273768 0.186922 0.000000
0.366661 0.186971 0.000000
0.460422 0.187023 0.000000
0.555716 0.187098 0.000000
0.651882 0.187194 0.000000
0.749307 0.187298 0.000000
0.847209 0.187432 0.000000
0.945602 0.187528 0.000000
1.044093 0.187692 0.000000
1.142544 0.187775 0.000000
1.241025 0.187831 0.000000
1.339169 0.187490 0.000000
1.437644 0.187533 0.000000
1.535571 0.187791 0.000000
1.563532 0.188209 0.000000
1.590323 0.188654 0.000000
1.615718 0.188981 0.000000
1.640825 0.189246 0.000000
1.665467 0.189386 0.000000
1.690101 0.189433 0.000000
1.714565 0.189413 0.000000
1.739380 0.189309 0.000000
1.764438 0.189170 0.000000
1.790649 0.188962 0.000000
[...]
POINT_DATA 16611 
VECTORS pos float 
0.000000 0.000000 0.000000
0.091291 0.000000 0.000000
0.182939 0.000000 0.000000
0.275172 0.000000 0.000000
0.368406 0.000000 0.000000
0.462652 0.000000 0.000000
0.558193 0.000000 0.000000
0.654778 0.000000 0.000000
0.752347 0.000000 0.000000
0.850560 0.000000 0.000000
0.949034 0.000000 0.000000
1.047762 0.000000 0.000000
1.146339 0.000000 0.000000
1.245065 0.000000 0.000000
1.343593 0.000000 0.000000
1.442774 0.000000 0.000000
1.541699 0.000000 0.000000
1.569876 0.000000 0.000000
1.596571 0.000000 0.000000
1.621707 0.000000 0.000000
1.646471 0.000000 0.000000
1.670691 0.000000 0.000000
1.694835 0.000000 0.000000
1.718810 0.000000 0.000000
1.743087 0.000000 0.000000
1.767699 0.000000 0.000000
1.793380 0.000000 0.000000
1.820475 0.000000 0.000000
1.849975 0.000000 0.000000
1.882794 0.000000 0.000000
1.919934 0.000000 0.000000
1.962765 0.000000 0.000000
2.011572 0.000000 0.000000
2.066593 0.000000 0.000000
2.125949 0.000000 0.000000
2.187685 0.000000 0.000000
2.250029 0.000000 0.000000
2.312506 0.000000 0.000000
2.375000 0.000000 0.000000
2.437500 0.000000 0.000000
2.500000 0.000000 0.000000
2.562500 0.000000 0.000000
2.625000 0.000000 0.000000
2.687500 0.000000 0.000000
2.750000 0.000000 0.000000
2.812500 0.000000 0.000000
2.875000 0.000000 0.000000
2.937500 0.000000 0.000000
3.000000 0.000000 0.000000
3.062500 0.000000 0.000000
3.125000 0.000000 0.000000
3.187500 0.000000 0.000000
3.250000 0.000000 0.000000
3.312500 0.000000 0.000000
3.375000 0.000000 0.000000
3.437500 0.000000 0.000000
3.500000 0.000000 0.000000
3.562500 0.000000 0.000000
3.625000 0.000000 0.000000
3.687500 0.000000 0.000000
3.750000 0.000000 0.000000
3.812500 0.000000 0.000000
3.875000 0.000000 0.000000
3.937500 0.000000 0.000000
4.000000 0.000000 0.000000
4.062500 0.000000 0.000000
4.125000 0.000000 0.000000
4.187500 0.000000 0.000000
4.250000 0.000000 0.000000
4.312500 0.000000 0.000000
4.375000 0.000000 0.000000
4.437500 0.000000 0.000000
4.500000 0.000000 0.000000
4.562500 0.000000 0.000000
4.625000 0.000000 0.000000
4.687500 0.000000 0.000000
4.750000 0.000000 0.000000
4.812500 0.000000 0.000000
4.875000 0.000000 0.000000
4.937500 0.000000 0.000000
5.000000 0.000000 0.000000
5.062500 0.000000 0.000000
5.125000 0.000000 0.000000
5.187500 0.000000 0.000000
5.250000 0.000000 0.000000
5.312500 0.000000 0.000000
5.375000 0.000000 0.000000
5.437500 0.000000 0.000000
5.500000 0.000000 0.000000
5.562500 0.000000 0.000000
5.625000 0.000000 0.000000
5.687500 0.000000 0.000000
5.750000 0.000000 0.000000
5.812500 0.000000 0.000000
5.875000 0.000000 0.000000
5.937500 0.000000 0.000000
6.000000 0.000000 0.000000
6.062500 0.000000 0.000000
6.125000 0.000000 0.000000
6.187500 0.000000 0.000000
6.250000 0.000000 0.000000
6.312500 0.000000 0.000000
6.375000 0.000000 0.000000
6.437500 0.000000 0.000000
6.500000 0.000000 0.000000
6.562500 0.000000 0.000000
6.625000 0.000000 0.000000
6.687500 0.000000 0.000000
6.750000 0.000000 0.000000
6.812500 0.000000 0.000000
6.875000 0.000000 0.000000
6.937500 0.000000 0.000000
7.000000 0.000000 0.000000
0.000000 0.062086 0.000000
0.091161 0.062070 0.000000
0.182722 0.062113 0.000000
0.274801 0.062113 0.000000
0.367997 0.062167 0.000000
0.462076 0.062186 0.000000
0.557625 0.062244 0.000000
0.654054 0.062288 0.000000
0.751665 0.062337 0.000000
0.849751 0.062402 0.000000
0.948288 0.062431 0.000000
1.046944 0.062498 0.000000
1.145538 0.062507 0.000000
1.244257 0.062530 0.000000
1.342812 0.062429 0.000000
1.441871 0.062338 0.000000
1.540440 0.062394 0.000000
1.568476 0.062784 0.000000
1.595163 0.063164 0.000000
1.620326 0.063298 0.000000
1.645111 0.063487 0.000000
1.669373 0.063606 0.000000
1.693607 0.063704 0.000000
1.717681 0.063744 0.000000
1.742116 0.063742 0.000000
1.766834 0.063695 0.000000
1.792705 0.063602 0.000000
1.819869 0.063490 0.000000
1.849582 0.063328 0.000000
1.882428 0.063185 0.000000
1.919792 0.062990 0.000000
1.962617 0.062857 0.000000
2.011598 0.062684 0.000000
2.066578 0.062599 0.000000
2.125978 0.062517 0.000000
2.187683 0.062507 0.000000
2.250032 0.062500 0.000000
2.312506 0.062500 0.000000
2.375001 0.062500 0.000000
2.437500 0.062500 0.000000
2.500000 0.062500 0.000000
2.562500 0.062500 0.000000
2.625000 0.062500 0.000000
2.687500 0.062500 0.000000
2.750000 0.062500 0.000000
2.812500 0.062500 0.000000
2.875000 0.062500 0.000000
2.937500 0.062500 0.000000
3.000000 0.062500 0.000000
3.062500 0.062500 0.000000
3.125000 0.062500 0.000000
3.187500 0.062500 0.000000
3.250000 0.062500 0.000000
3.312500 0.062500 0.000000
3.375000 0.062500 0.000000
3.437500 0.062500 0.000000
3.500000 0.062500 0.000000
3.562500 0.062500 0.000000
3.625000 0.062500 0.000000
3.687500 0.062500 0.000000
3.750000 0.062500 0.000000
3.812500 0.062500 0.000000
3.875000 0.062500 0.000000
3.937500 0.062500 0.000000
4.000000 0.062500 0.000000
4.062500 0.062500 0.000000
4.125000 0.062500 0.000000
4.187500 0.062500 0.000000
4.250000 0.062500 0.000000
4.312500 0.062500 0.000000
4.375000 0.062500 0.000000
4.437500 0.062500 0.000000
4.500000 0.062500 0.000000
4.562500 0.062500 0.000000
4.625000 0.062500 0.000000
4.687500 0.062500 0.000000
4.750000 0.062500 0.000000
4.812500 0.062500 0.000000
4.875000 0.062500 0.000000
4.937500 0.062500 0.000000
5.000000 0.062500 0.000000
5.062500 0.062500 0.000000
5.125000 0.062500 0.000000
5.187500 0.062500 0.000000
5.250000 0.062500 0.000000
5.312500 0.062500 0.000000
5.375000 0.062500 0.000000
5.437500 0.062500 0.000000
5.500000 0.062500 0.000000
5.562500 0.062500 0.000000
5.625000 0.062500 0.000000
5.687500 0.062500 0.000000
5.750000 0.062500 0.000000
5.812500 0.062500 0.000000
5.875000 0.062500 0.000000
5.937500 0.062500 0.000000
6.000000 0.062500 0.000000
6.062500 0.062500 0.000000
6.125000 0.062500 0.000000
6.187500 0.062500 0.000000
6.250000 0.062500 0.000000
6.312500 0.062500 0.000000
6.375000 0.062500 0.000000
6.437500 0.062500 0.000000
6.500000 0.062500 0.000000
6.562500 0.062500 0.000000
6.625000 0.062500 0.000000
6.687500 0.062500 0.000000
6.750000 0.062500 0.000000
6.812500 0.062500 0.000000
6.875000 0.062500 0.000000
6.937500 0.062500 0.000000
7.000000 0.062500 0.000000
0.000000 0.124416 0.000000
0.090492 0.124422 0.000000
0.181325 0.124450 0.000000
0.272865 0.124471 0.000000
0.365341 0.124516 0.000000
0.459052 0.124558 0.000000
0.553971 0.124624 0.000000
0.650213 0.124696 0.000000
0.747364 0.124779 0.000000
0.845387 0.124875 0.000000
0.943646 0.124943 0.000000
1.042236 0.125052 0.000000
1.140651 0.125104 0.000000
1.239233 0.125099 0.000000
1.337809 0.124850 0.000000
1.436877 0.124797 0.000000
1.535377 0.124956 0.000000
1.563411 0.125414 0.000000
1.590209 0.126033 0.000000
1.615524 0.126354 0.000000
1.640459 0.126654 0.000000
1.664909 0.126822 0.000000
1.689326 0.126898 0.000000
1.713646 0.126913 0.000000
1.738263 0.126825 0.000000
1.763292 0.126714 0.000000
1.789306 0.126513 0.000000
1.816881 0.126314 0.000000
1.846692 0.126049 0.000000
1.880106 0.125813 0.000000
1.917583 0.125549 0.000000
1.961177 0.125341 0.000000
2.010412 0.125163 0.000000
2.066130 0.125060 0.000000
2.125769 0.125015 0.000000
2.187654 0.125002 0.000000
2.250021 0.125001 0.000000
2.312504 0.125000 0.000000
2.375000 0.125000 0.000000
2.437500 0.125000 0.000000
2.500000 0.125000 0.000000
2.562500 0.125000 0.000000
2.625000 0.125000 0.000000
2.687500 0.125000 0.000000
2.750000 0.125000 0.000000
2.812500 0.125000 0.000000
2.875000 0.125000 0.000000
2.937500 0.125000 0.000000
3.000000 0.125000 0.000000
3.062500 0.125000 0.000000
3.125000 0.125000 0.000000
3.187500 0.125000 0.000000
3.250000 0.125000 0.000000
3.312500 0.125000 0.000000
3.375000 0.125000 0.000000
3.437500 0.125000 0.000000
3.500000 0.125000 0.000000
3.562500 0.125000 0.000000
3.625000 0.125000 0.000000
3.687500 0.125000 0.000000
3.750000 0.125000 0.000000
3.812500 0.125000 0.000000
3.875000 0.125000 0.000000
3.937500 0.125000 0.000000
4.000000 0.125000 0.000000
4.062500 0.125000 0.000000
4.125000 0.125000 0.000000
4.187500 0.125000 0.000000
4.250000 0.125000 0.000000
4.312500 0.125000 0.000000
4.375000 0.125000 0.000000
4.437500 0.125000 0.000000
4.500000 0.125000 0.000000
4.562500 0.125000 0.000000
4.625000 0.125000 0.000000
4.687500 0.125000 0.000000
4.750000 0.125000 0.000000
4.812500 0.125000 0.000000
4.875000 0.125000 0.000000
4.937500 0.125000 0.000000
5.000000 0.125000 0.000000
5.062500 0.125000 0.000000
5.125000 0.125000 0.000000
5.187500 0.125000 0.000000
5.250000 0.125000 0.000000
5.312500 0.125000 0.000000
5.375000 0.125000 0.000000
5.437500 0.125000 0.000000
5.500000 0.125000 0.000000
5.562500 0.125000 0.000000
5.625000 0.125000 0.000000
5.687500 0.125000 0.000000
5.750000 0.125000 0.000000
5.812500 0.125000 0.000000
5.875000 0.125000 0.000000
5.937500 0.125000 0.000000
6.000000 0.125000 0.000000
6.062500 0.125000 0.000000
6.125000 0.125000 0.000000
6.187500 0.125000 0.000000
6.250000 0.125000 0.000000
6.312500 0.125000 0.000000
6.375000 0.125000 0.000000
6.437500 0.125000 0.000000
6.500000 0.125000 0.000000
6.562500 0.125000 0.000000
6.625000 0.125000 0.000000
6.687500 0.125000 0.000000
6.750000 0.125000 0.000000
6.812500 0.125000 0.000000
6.875000 0.125000 0.000000
6.937500 0.125000 0.000000
7.000000 0.125000 0.000000
0.000000 0.186864 0.000000
0.090808 0.186870 0.000000
0.182033 0.186900 0.000000
0.273768 0.186922 0.000000
0.366661 0.186971 0.000000
0.460422 0.187023 0.000000
0.555716 0.187098 0.000000
0.651882 0.187194 0.000000
0.749307 0.187298 0.000000
0.847209 0.187432 0.000000
0.945602 0.187528 0.000000
1.044093 0.187692 0.000000
1.142544 0.187775 0.000000
1.241025 0.187831 0.000000
1.339169 0.187490 0.000000
1.437644 0.187533 0.000000
1.535571 0.187791 0.000000
1.563532 0.188209 0.000000
1.590323 0.188654 0.000000
1.615718 0.188981 0.000000
1.640825 0.189246 0.000000
1.665467 0.189386 0.000000
1.690101 0.189433 0.000000
1.714565 0.189413 0.000000
1.739380 0.189309 0.000000
1.764438 0.189170 0.000000
1.790649 0.188962 0.000000
1.818109 0.188747 0.000000
1.848141 0.188482 0.000000
1.881263 0.188247 0.000000
1.918943 0.187993 0.000000
1.962024 0.187805 0.000000
2.011274 0.187640 0.000000
2.066423 0.187557 0.000000
2.125934 0.187512 0.000000
2.187673 0.187503 0.000000
2.250030 0.187500 0.000000
2.312505 0.187500 0.000000
2.375000 0.187500 0.000000
2.437500 0.187500 0.000000
2.500000 0.187500 0.000000
2.562500 0.187500 0.000000
2.625000 0.187500 0.000000
2.687500 0.187500 0.000000
2.750000 0.187500 0.000000
2.812500 0.187500 0.000000
2.875000 0.187500 0.000000
2.937500 0.187500 0.000000
3.000000 0.187500 0.000000
3.062500 0.187500 0.000000
3.125000 0.187500 0.000000
3.187500 0.187500 0.000000
3.250000 0.187500 0.000000
3.312500 0.187500 0.000000
3.375000 0.187500 0.000000
3.437500 0.187500 0.000000
3.500000 0.187500 0.000000
3.562500 0.187500 0.000000
3.625000 0.187500 0.000000
3.687500 0.187500 0.000000
3.750000 0.187500 0.000000
3.812500 0.187500 0.000000
3.875000 0.187500 0.000000
3.937500 0.187500 0.000000
4.000000 0.187500 0.000000
4.062500 0.187500 0.000000
4.125000 0.187500 0.000000
4.187500 0.187500 0.000000
4.250000 0.187500 0.000000
4.312500 0.187500 0.000000
4.375000 0.187500 0.000000
4.437500 0.187500 0.000000
4.500000 0.187500 0.000000
4.562500 0.187500 0.000000
4.625000 0.187500 0.000000
4.687500 0.187500 0.000000
4.750000 0.187500 0.000000
4.812500 0.187500 0.000000
4.875000 0.187500 0.000000
4.937500 0.187500 0.000000
5.000000 0.187500 0.000000
5.062500 0.187500 0.000000
5.125000 0.187500 0.000000
5.187500 0.187500 0.000000
5.250000 0.187500 0.000000
5.312500 0.187500 0.000000
5.375000 0.187500 0.000000
5.437500 0.187500 0.000000
5.500000 0.187500 0.000000
5.562500 0.187500 0.000000
5.625000 0.187500 0.000000
5.687500 0.187500 0.000000
5.750000 0.187500 0.000000
5.812500 0.187500 0.000000
5.875000 0.187500 0.000000
5.937500 0.187500 0.000000
6.000000 0.187500 0.000000
6.062500 0.187500 0.000000
6.125000 0.187500 0.000000
6.187500 0.187500 0.000000
6.250000 0.187500 0.000000
6.312500 0.187500 0.000000
6.375000 0.187500 0.000000
6.437500 0.187500 0.000000
6.500000 0.187500 0.000000
6.562500 0.187500 0.000000
6.625000 0.187500 0.000000
6.687500 0.187500 0.000000
6.750000 0.187500 0.000000
6.812500 0.187500 0.000000
6.875000 0.187500 0.000000
6.937500 0.187500 0.000000
7.000000 0.187500 0.000000
0.000000 0.249382 0.000000
0.090292 0.249392 0.000000
0.180919 0.249419 0.000000
0.272271 0.249448 0.000000
0.364542 0.249495 0.000000
0.458079 0.249565 0.000000
0.552801 0.249644 0.000000
0.648892 0.249775 0.000000
0.745871 0.249893 0.000000
0.843768 0.250082 0.000000
0.941837 0.250211 0.000000
1.040251 0.250440 0.000000
1.138457 0.250537 0.000000
1.236867 0.250692 0.000000
1.335123 0.250349 0.000000
1.433684 0.250467 0.000000
1.531960 0.250623 0.000000
1.560126 0.250782 0.000000
1.587128 0.250999 0.000000
1.612688 0.251231 0.000000
1.637917 0.251428 0.000000
1.662649 0.251571 0.000000
1.687317 0.251631 0.000000
1.711854 0.251634 0.000000
1.736654 0.251557 0.000000
1.761853 0.251446 0.000000
1.788008 0.251266 0.000000
1.815742 0.251082 0.000000
1.845680 0.250848 0.000000
1.879271 0.250642 0.000000
1.916887 0.250418 0.000000
1.960686 0.250255 0.000000
2.010080 0.250114 0.000000
2.065977 0.250045 0.000000
2.125716 0.250009 0.000000
2.187643 0.250002 0.000000
2.250019 0.250000 0.000000
2.312504 0.250000 0.000000
2.375000 0.250000 0.000000
2.437500 0.250000 0.000000
2.500000 0.250000 0.000000
2.562500 0.250000 0.000000
2.625000 0.250000 0.000000
2.687500 0.250000 0.000000
2.750000 0.250000 0.000000
2.812500 0.250000 0.000000
2.875000 0.250000 0.000000
2.937500 0.250000 0.000000
3.000000 0.250000 0.000000
3.062500 0.250000 0.000000
3.125000 0.250000 0.000000
3.187500 0.250000 0.000000
3.250000 0.250000 0.000000
3.312500 0.250000 0.000000
3.375000 0.250000 0.000000
3.437500 0.250000 0.000000
3.500000 0.250000 0.000000
3.562500 0.250000 0.000000
3.625000 0.250000 0.000000
3.687500 0.250000 0.000000
3.750000 0.250000 0.000000
3.812500 0.250000 0.000000
3.875000 0.250000 0.000000
3.937500 0.250000 0.000000
4.000000 0.250000 0.000000
4.062500 0.250000 0.000000
4.125000 0.250000 0.000000
4.187500 0.250000 0.000000
4.250000 0.250000 0.000000
4.312500 0.250000 0.000000
4.375000 0.250000 0.000000
4.437500 0.250000 0.000000
4.500000 0.250000 0.000000
4.562500 0.250000 0.000000
4.625000 0.250000 0.000000
4.687500 0.250000 0.000000
4.750000 0.250000 0.000000
4.812500 0.250000 0.000000
4.875000 0.250000 0.000000
4.937500 0.250000 0.000000
5.000000 0.250000 0.000000
5.062500 0.250000 0.000000
5.125000 0.250000 0.000000
5.187500 0.250000 0.000000
5.250000 0.250000 0.000000
5.312500 0.250000 0.000000
5.375000 0.250000 0.000000
5.437500 0.250000 0.000000
5.500000 0.250000 0.000000
5.562500 0.250000 0.000000
5.625000 0.250000 0.000000
5.687500 0.250000 0.000000
5.750000 0.250000 0.000000
5.812500 0.250000 0.000000
5.875000 0.250000 0.000000
5.937500 0.250000 0.000000
6.000000 0.250000 0.000000
6.062500 0.250000 0.000000
6.125000 0.250000 0.000000
6.187500 0.250000 0.000000
6.250000 0.250000 0.000000
6.312500 0.250000 0.000000
6.375000 0.250000 0.000000
6.437500 0.250000 0.000000
6.500000 0.250000 0.000000
6.562500 0.250000 0.000000
6.625000 0.250000 0.000000
6.687500 0.250000 0.000000
6.750000 0.250000 0.000000
6.812500 0.250000 0.000000
6.875000 0.250000 0.000000
6.937500 0.250000 0.000000
7.000000 0.250000 0.000000
0.000000 0.311940 0.000000
0.090712 0.311950 0.000000
0.181847 0.311980 0.000000
0.273488 0.312016 0.000000
0.366295 0.312074 0.000000
0.459965 0.312162 0.000000
0.555180 0.312265 0.000000
0.651257 0.312432 0.000000
0.748601 0.312588 0.000000
0.846390 0.312837 0.000000
0.944654 0.313026 0.000000
1.042988 0.313312 0.000000
1.141297 0.313429 0.000000
1.239645 0.313670 0.000000
1.337603 0.313370 0.000000
1.435802 0.313529 0.000000
1.533856 0.313335 0.000000
1.561959 0.313280 0.000000
1.588868 0.313318 0.000000
1.614355 0.313436 0.000000
1.639558 0.313553 0.000000
1.664287 0.313663 0.000000
1.689006 0.313725 0.000000
1.713545 0.313743 0.000000
1.738431 0.313698 0.000000
1.763551 0.313621 0.000000
1.789827 0.313489 0.000000
1.817349 0.313347 0.000000
1.847457 0.313167 0.000000
1.880663 0.313005 0.000000
1.918451 0.312829 0.000000
1.961653 0.312700 0.000000
2.011038 0.312589 0.000000
2.066305 0.312535 0.000000
2.125897 0.312507 0.000000
2.187665 0.312502 0.000000
2.250029 0.312500 0.000000
2.312505 0.312500 0.000000
2.375000 0.312500 0.000000
2.437500 0.312500 0.000000
2.500000 0.312500 0.000000
2.562500 0.312500 0.000000
2.625000 0.312500 0.000000
2.687500 0.312500 0.000000
2.750000 0.312500 0.000000
2.812500 0.312500 0.000000
2.875000 0.312500 0.000000
2.937500 0.312500 0.000000
3.000000 0.312500 0.000000
3.062500 0.312500 0.000000
3.125000 0.312500 0.000000
3.187500 0.312500 0.000000
3.250000 0.312500 0.000000
3.312500 0.312500 0.000000
3.375000 0.312500 0.000000
3.437500 0.312500 0.000000
3.500000 0.312500 0.000000
3.562500 0.312500 0.000000
3.625000 0.312500 0.000000
3.687500 0.312500 0.000000
3.750000 0.312500 0.000000
3.812500 0.312500 0.000000
3.875000 0.312500 0.000000
3.937500 0.312500 0.000000
4.000000 0.312500 0.000000
4.062500 0.312500 0.000000
4.125000 0.312500 0.000000
4.187500 0.312500 0.000000
4.250000 0.312500 0.000000
4.312500 0.312500 0.000000
4.375000 0.312500 0.000000
4.437500 0.312500 0.000000
4.500000 0.312500 0.000000
4.562500 0.312500 0.000000
4.625000 0.312500 0.000000
4.687500 0.312500 0.000000
4.750000 0.312500 0.000000
4.812500 0.312500 0.000000
4.875000 0.312500 0.000000
4.937500 0.312500 0.000000
5.000000 0.312500 0.000000
5.062500 0.312500 0.000000
5.125000 0.312500 0.000000
5.187500 0.312500 0.000000
5.250000 0.312500 0.000000
5.312500 0.312500 0.000000
5.375000 0.312500 0.000000
5.437500 0.312500 0.000000
5.500000 0.312500 0.000000
5.562500 0.312500 0.000000
5.625000 0.312500 0.000000
5.687500 0.312500 0.000000
5.750000 0.312500 0.000000
5.812500 0.312500 0.000000
5.875000 0.312500 0.000000
5.937500 0.312500 0.000000
6.000000 0.312500 0.000000
6.062500 0.312500 0.000000
6.125000 0.312500 0.000000
6.187500 0.312500 0.000000
6.250000 0.312500 0.000000
6.312500 0.312500 0.000000
6.375000 0.312500 0.000000
6.437500 0.312500 0.000000
6.500000 0.312500 0.000000
6.562500 0.312500 0.000000
6.625000 0.312500 0.000000
6.687500 0.312500 0.000000
6.750000 0.312500 0.000000
6.812500 0.312500 0.000000
6.875000 0.312500 0.000000
6.937500 0.312500 0.000000
7.000000 0.312500 0.000000
0.000000 0.374516 0.000000
0.090261 0.374530 0.000000
0.180858 0.374561 0.000000
0.272186 0.374612 0.000000
0.364433 0.374680 0.000000
0.457957 0.374802 0.000000
0.552661 0.374928 0.000000
0.648742 0.375156 0.000000
0.745688 0.375352 0.000000
0.843528 0.375695 0.000000
0.941497 0.375940 0.000000
1.039819 0.376321 0.000000
1.137870 0.376473 0.000000
1.236108 0.376800 0.000000
1.334306 0.376511 0.000000
1.432805 0.376680 0.000000
1.531390 0.375942 0.000000
1.559680 0.375763 0.000000
1.586702 0.375695 0.000000
1.612233 0.375715 0.000000
1.637418 0.375748 0.000000
1.662109 0.375812 0.000000
1.686752 0.375854 0.000000
1.711277 0.375884 0.000000
1.736074 0.375869 0.000000
1.761279 0.375834 0.000000
1.787444 0.375750 0.000000
1.815203 0.375655 0.000000
1.845173 0.375522 0.000000
1.878823 0.375400 0.000000
1.916510 0.375260 0.000000
1.960409 0.375158 0.000000
2.009905 0.375069 0.000000
2.065896 0.375027 0.000000
2.125692 0.375005 0.000000
2.187638 0.375001 0.000000
2.250018 0.375000 0.000000
2.312504 0.375000 0.000000
2.375000 0.375000 0.000000
2.437500 0.375000 0.000000
2.500000 0.375000 0.000000
2.562500 0.375000 0.000000
2.625000 0.375000 0.000000
2.687500 0.375000 0.000000
2.750000 0.375000 0.000000
2.812500 0.375000 0.000000
2.875000 0.375000 0.000000
2.937500 0.375000 0.000000
3.000000 0.375000 0.000000
3.062500 0.375000 0.000000
3.125000 0.375000 0.000000
3.187500 0.375000 0.000000
3.250000 0.375000 0.000000
3.312500 0.375000 0.000000
3.375000 0.375000 0.000000
3.437500 0.375000 0.000000
3.500000 0.375000 0.000000
3.562500 0.375000 0.000000
3.625000 0.375000 0.000000
3.687500 0.375000 0.000000
3.750000 0.375000 0.000000