# vtk DataFile Version 2.0
Mesh for Fierro
ASCII 
DATASET UNSTRUCTURED_GRID

POINTS 16611 float
0.000000 0.000000 0.000000
0.160712 0.000000 0.000000
0.319288 0.000000 0.000000
0.474280 0.000000 0.000000
0.623868 0.000000 0.000000
0.768247 0.000000 0.000000
0.906470 0.000000 0.000000
1.039529 0.000000 0.000000
1.166972 0.000000 0.000000
1.290069 0.000000 0.000000
1.408552 0.000000 0.000000
1.523823 0.000000 0.000000
1.635733 0.000000 0.000000
1.745864 0.000000 0.000000
1.854325 0.000000 0.000000
1.963034 0.000000 0.000000
2.072436 0.000000 0.000000
2.103915 0.000000 0.000000
2.133482 0.000000 0.000000
2.161128 0.000000 0.000000
2.188090 0.000000 0.000000
2.214254 0.000000 0.000000
2.240022 0.000000 0.000000
2.265321 0.000000 0.000000
2.290358 0.000000 0.000000
2.315075 0.000000 0.000000
2.339616 0.000000 0.000000
2.363927 0.000000 0.000000
2.388122 0.000000 0.000000
2.412143 0.000000 0.000000
2.436091 0.000000 0.000000
2.459905 0.000000 0.000000
2.483678 0.000000 0.000000
2.507345 0.000000 0.000000
2.531004 0.000000 0.000000
2.554584 0.000000 0.000000
2.578240 0.000000 0.000000
2.601936 0.000000 0.000000
2.625999 0.000000 0.000000
2.650470 0.000000 0.000000
2.675976 0.000000 0.000000
2.702817 0.000000 0.000000
2.731918 0.000000 0.000000
2.764096 0.000000 0.000000
2.800347 0.000000 0.000000
2.841975 0.000000 0.000000
2.889407 0.000000 0.000000
2.943099 0.000000 0.000000
3.001505 0.000000 0.000000
3.062828 0.000000 0.000000
3.125057 0.000000 0.000000
3.187513 0.000000 0.000000
3.250001 0.000000 0.000000
3.312500 0.000000 0.000000
3.375000 0.000000 0.000000
3.437500 0.000000 0.000000
3.500000 0.000000 0.000000
3.562500 0.000000 0.000000
3.625000 0.000000 0.000000
3.687500 0.000000 0.000000
3.750000 0.000000 0.000000
3.812500 0.000000 0.000000
3.875000 0.000000 0.000000
3.937500 0.000000 0.000000
4.000000 0.000000 0.000000
4.062500 0.000000 0.000000
4.125000 0.000000 0.000000
4.187500 0.000000 0.000000
4.250000 0.000000 0.000000
4.312500 0.000000 0.000000
4.375000 0.000000 0.000000
4.437500 0.000000 0.000000
4.500000 0.000000 0.000000
4.562500 0.000000 0.000000
4.625000 0.000000 0.000000
4.687500 0.000000 0.000000
4.750000 0.000000 0.000000
4.812500 0.000000 0.000000
4.875000 0.000000 0.000000
4.937500 0.000000 0.000000
5.000000 0.000000 0.000000
5.062500 0.000000 0.000000
5.125000 0.000000 0.000000
5.187500 0.000000 0.000000
5.250000 0.000000 0.000000
5.312500 0.000000 0.000000
5.375000 0.000000 0.000000
5.437500 0.000000 0.000000
5.500000 0.000000 0.000000
5.562500 0.000000 0.000000
5.625000 0.000000 0.000000
5.687500 0.000000 0.000000
5.750000 0.000000 0.000000
5.812500 0.000000 0.000000
5.875000 0.000000 0.000000
5.937500 0.000000 0.000000
6.000000 0.000000 0.000000
6.062500 0.000000 0.000000
6.125000 0.000000 0.000000
6.187500 0.000000 0.000000
6.250000 0.000000 0.000000
6.312500 0.000000 0.000000
6.375000 0.000000 0.000000
6.437500 0.000000 0.000000
6.500000 0.000000 0.000000
6.562500 0.000000 0.000000
6.625000 0.000000 0.000000
6.687500 0.000000 0.000000
6.750000 0.000000 0.000000
6.812500 0.000000 0.000000
6.875000 0.000000 0.000000
6.937500 0.000000 0.000000
7.000000 0.000000 0.000000
0.000000 0.064737 0.000000
0.160545 0.064863 0.000000
0.318932 0.064946 0.000000
0.473853 0.065488 0.000000
0.623276 0.065858 0.000000
0.767683 0.066568 0.000000
0.905769 0.067042 0.000000
1.038900 0.067743 0.000000
1.166215 0.068140 0.000000
1.289366 0.068674 0.000000
1.407737 0.068845 0.000000
1.523042 0.069054 0.000000
1.634849 0.068843 0.000000
1.744969 0.068480 0.000000
1.853345 0.067498 0.000000
1.961823 0.066385 0.000000
2.070709 0.063990 0.000000
2.101941 0.063919 0.000000
2.131398 0.063992 0.000000
2.159007 0.063953 0.000000
2.185920 0.063986 0.000000
2.212069 0.064030 0.000000
2.237830 0.064072 0.000000
2.263150 0.064120 0.000000
2.288215 0.064142 0.000000
2.312980 0.064167 0.000000
2.337572 0.064165 0.000000
2.361944 0.064171 0.000000
2.386199 0.064150 0.000000
2.410287 0.064146 0.000000
2.434300 0.064117 0.000000
2.458183 0.064111 0.000000
2.482025 0.064080 0.000000
2.505766 0.064073 0.000000
2.529513 0.064039 0.000000
2.553190 0.064029 0.000000
2.576976 0.064007 0.000000
2.600792 0.063955 0.000000
2.625023 0.063866 0.000000
2.649605 0.063760 0.000000
2.675302 0.063618 0.000000
2.702217 0.063473 0.000000
2.731531 0.063294 0.000000
2.763740 0.063145 0.000000
2.800213 0.062961 0.000000
2.841832 0.062840 0.000000
2.889443 0.062685 0.000000
2.943087 0.062610 0.000000
3.001544 0.062524 0.000000
3.062827 0.062511 0.000000
3.125062 0.062500 0.000000
3.187512 0.062500 0.000000
3.250002 0.062500 0.000000
3.312500 0.062500 0.000000
3.375000 0.062500 0.000000
3.437500 0.062500 0.000000
3.500000 0.062500 0.000000
3.562500 0.062500 0.000000
3.625000 0.062500 0.000000
3.687500 0.062500 0.000000
3.750000 0.062500 0.000000
3.812500 0.062500 0.000000
3.875000 0.062500 0.000000
3.937500 0.062500 0.000000
4.000000 0.062500 0.000000
4.062500 0.062500 0.000000
4.125000 0.062500 0.000000
4.187500 0.062500 0.000000
4.250000 0.062500 0.000000
4.312500 0.062500 0.000000
4.375000 0.062500 0.000000
4.437500 0.062500 0.000000
4.500000 0.062500 0.000000
4.562500 0.062500 0.000000
4.625000 0.062500 0.000000
4.687500 0.062500 0.000000
4.750000 0.062500 0.000000
4.812500 0.062500 0.000000
4.875000 0.062500 0.000000
4.937500 0.062500 0.000000
5.000000 0.062500 0.000000
5.062500 0.062500 0.000000
5.125000 0.062500 0.000000
5.187500 0.062500 0.000000
5.250000 0.062500 0.000000
5.312500 0.062500 0.000000
5.375000 0.062500 0.000000
5.437500 0.062500 0.000000
5.500000 0.062500 0.000000
5.562500 0.062500 0.000000
5.625000 0.062500 0.000000
5.687500 0.062500 0.000000
5.750000 0.062500 0.000000
5.812500 0.062500 0.000000
5.875000 0.062500 0.000000
5.937500 0.062500 0.000000
6.000000 0.062500 0.000000
6.062500 0.062500 0.000000
6.125000 0.062500 0.000000
6.187500 0.062500 0.000000
6.250000 0.062500 0.000000
6.312500 0.062500 0.000000
6.375000 0.062500 0.000000
6.437500 0.062500 0.000000
6.500000 0.062500 0.000000
6.562500 0.062500 0.000000
6.625000 0.062500 0.000000
6.687500 0.062500 0.000000
6.750000 0.062500 0.000000
6.812500 0.062500 0.000000
6.875000 0.062500 0.000000
6.937500 0.062500 0.000000
7.000000 0.062500 0.000000
0.000000 0.129780 0.000000
0.159635 0.129954 0.000000
0.317374 0.130159 0.000000
0.471424 0.131164 0.000000
0.620602 0.131905 0.000000
0.764342 0.133277 0.000000
0.902446 0.134216 0.000000
1.035071 0.135607 0.000000
1.162449 0.136409 0.000000
1.285135 0.137487 0.000000
1.403499 0.137839 0.000000
1.518361 0.138273 0.000000
1.630067 0.137881 0.000000
1.739733 0.137176 0.000000
1.847965 0.135216 0.000000
1.955875 0.133242 0.000000
2.064474 0.128501 0.000000
2.095559 0.128141 0.000000
2.124931 0.128162 0.000000
2.152463 0.128101 0.000000
2.179354 0.128108 0.000000
2.205469 0.128133 0.000000
2.231264 0.128139 0.000000
2.256617 0.128165 0.000000
2.281772 0.128148 0.000000
2.306623 0.128145 0.000000
2.331343 0.128105 0.000000
2.355839 0.128074 0.000000
2.380244 0.128015 0.000000
2.404476 0.127969 0.000000
2.428649 0.127901 0.000000
2.452691 0.127845 0.000000
2.476706 0.127771 0.000000
2.500630 0.127683 0.000000
2.524578 0.127566 0.000000
2.548487 0.127446 0.000000
2.572508 0.127318 0.000000
2.596618 0.127169 0.000000
2.621074 0.126954 0.000000
2.645998 0.126732 0.000000
2.671874 0.126454 0.000000
2.699217 0.126194 0.000000
2.728652 0.125907 0.000000
2.761423 0.125663 0.000000
2.798003 0.125434 0.000000
2.840360 0.125259 0.000000
2.888176 0.125130 0.000000
2.942562 0.125048 0.000000
3.001260 0.125016 0.000000
3.062781 0.125002 0.000000
3.125043 0.125002 0.000000
3.187510 0.125000 0.000000
3.250001 0.125000 0.000000
3.312500 0.125000 0.000000
3.375000 0.125000 0.000000
3.437500 0.125000 0.000000
3.500000 0.125000 0.000000
3.562500 0.125000 0.000000
3.625000 0.125000 0.000000
3.687500 0.125000 0.000000
3.750000 0.125000 0.000000
3.812500 0.125000 0.000000
3.875000 0.125000 0.000000
3.937500 0.125000 0.000000
4.000000 0.125000 0.000000
4.062500 0.125000 0.000000
4.125000 0.125000 0.000000
4.187500 0.125000 0.000000
4.250000 0.125000 0.000000
4.312500 0.125000 0.000000
4.375000 0.125000 0.000000
4.437500 0.125000 0.000000
4.500000 0.125000 0.000000
4.562500 0.125000 0.000000
4.625000 0.125000 0.000000
4.687500 0.125000 0.000000
4.750000 0.125000 0.000000
4.812500 0.125000 0.000000
4.875000 0.125000 0.000000
4.937500 0.125000 0.000000
5.000000 0.125000 0.000000
5.062500 0.125000 0.000000
5.125000 0.125000 0.000000
5.187500 0.125000 0.000000
5.250000 0.125000 0.000000
5.312500 0.125000 0.000000
5.375000 0.125000 0.000000
5.437500 0.125000 0.000000
5.500000 0.125000 0.000000
5.562500 0.125000 0.000000
5.625000 0.125000 0.000000
5.687500 0.125000 0.000000
5.750000 0.125000 0.000000
5.812500 0.125000 0.000000
5.875000 0.125000 0.000000
5.937500 0.125000 0.000000
6.000000 0.125000 0.000000
6.062500 0.125000 0.000000
6.125000 0.125000 0.000000
6.187500 0.125000 0.000000
6.250000 0.125000 0.000000
6.312500 0.125000 0.000000
6.375000 0.125000 0.000000
6.437500 0.125000 0.000000
6.500000 0.125000 0.000000
6.562500 0.125000 0.000000
6.625000 0.125000 0.000000
6.687500 0.125000 0.000000
6.750000 0.125000 0.000000
6.812500 0.125000 0.000000
6.875000 0.125000 0.000000
6.937500 0.125000 0.000000
7.000000 0.125000 0.000000
0.000000 0.194943 0.000000
0.160195 0.195174 0.000000
0.318246 0.195504 0.000000
0.472925 0.196970 0.000000
0.622111 0.198096 0.000000
0.766384 0.200122 0.000000
0.904267 0.201557 0.000000
1.037231 0.203629 0.000000
1.164253 0.204880 0.000000
1.287086 0.206490 0.000000
1.405018 0.207060 0.000000
1.519878 0.207687 0.000000
1.631145 0.207161 0.000000
1.740520 0.206168 0.000000
1.847757 0.203408 0.000000
1.954542 0.200665 0.000000
2.061800 0.193481 0.000000
2.092679 0.192758 0.000000
2.121982 0.192359 0.000000
2.149579 0.192133 0.000000
2.176580 0.191995 0.000000
2.202895 0.191900 0.000000
2.228875 0.191788 0.000000
2.254460 0.191721 0.000000
2.279822 0.191601 0.000000
2.304913 0.191523 0.000000
2.329847 0.191393 0.000000
[...]
POINT_DATA 16611 
VECTORS pos float 
0.000000 0.000000 0.000000
0.160712 0.000000 0.000000
0.319288 0.000000 0.000000
0.474280 0.000000 0.000000
0.623868 0.000000 0.000000
0.768247 0.000000 0.000000
0.906470 0.000000 0.000000
1.039529 0.000000 0.000000
1.166972 0.000000 0.000000
1.290069 0.000000 0.000000
1.408552 0.000000 0.000000
1.523823 0.000000 0.000000
1.635733 0.000000 0.000000
1.745864 0.000000 0.000000
1.854325 0.000000 0.000000
1.963034 0.000000 0.000000
2.072436 0.000000 0.000000
2.103915 0.000000 0.000000
2.133482 0.000000 0.000000
2.161128 0.000000 0.000000
2.188090 0.000000 0.000000
2.214254 0.000000 0.000000
2.240022 0.000000 0.000000
2.265321 0.000000 0.000000
2.290358 0.000000 0.000000
2.315075 0.000000 0.000000
2.339616 0.000000 0.000000
2.363927 0.000000 0.000000
2.388122 0.000000 0.000000
2.412143 0.000000 0.000000
2.436091 0.000000 0.000000
2.459905 0.000000 0.000000
2.483678 0.000000 0.000000
2.507345 0.000000 0.000000
2.531004 0.000000 0.000000
2.554584 0.000000 0.000000
2.578240 0.000000 0.000000
2.601936 0.000000 0.000000
2.625999 0.000000 0.000000
2.650470 0.000000 0.000000
2.675976 0.000000 0.000000
2.702817 0.000000 0.000000
2.731918 0.000000 0.000000
2.764096 0.000000 0.000000
2.800347 0.000000 0.000000
2.841975 0.000000 0.000000
2.889407 0.000000 0.000000
2.943099 0.000000 0.000000
3.001505 0.000000 0.000000
3.062828 0.000000 0.000000
3.125057 0.000000 0.000000
3.187513 0.000000 0.000000
3.250001 0.000000 0.000000
3.312500 0.000000 0.000000
3.375000 0.000000 0.000000
3.437500 0.000000 0.000000
3.500000 0.000000 0.000000
3.562500 0.000000 0.000000
3.625000 0.000000 0.000000
3.687500 0.000000 0.000000
3.750000 0.000000 0.000000
3.812500 0.000000 0.000000
3.875000 0.000000 0.000000
3.937500 0.000000 0.000000
4.000000 0.000000 0.000000
4.062500 0.000000 0.000000
4.125000 0.000000 0.000000
4.187500 0.000000 0.000000
4.250000 0.000000 0.000000
4.312500 0.000000 0.000000
4.375000 0.000000 0.000000
4.437500 0.000000 0.000000
4.500000 0.000000 0.000000
4.562500 0.000000 0.000000
4.625000 0.000000 0.000000
4.687500 0.000000 0.000000
4.750000 0.000000 0.000000
4.812500 0.000000 0.000000
4.875000 0.000000 0.000000
4.937500 0.000000 0.000000
5.000000 0.000000 0.000000
5.062500 0.000000 0.000000
5.125000 0.000000 0.000000
5.187500 0.000000 0.000000
5.250000 0.000000 0.000000
5.312500 0.000000 0.000000
5.375000 0.000000 0.000000
5.437500 0.000000 0.000000
5.500000 0.000000 0.000000
5.562500 0.000000 0.000000
5.625000 0.000000 0.000000
5.687500 0.000000 0.000000
5.750000 0.000000 0.000000
5.812500 0.000000 0.000000
5.875000 0.000000 0.000000
5.937500 0.000000 0.000000
6.000000 0.000000 0.000000
6.062500 0.000000 0.000000
6.125000 0.000000 0.000000
6.187500 0.000000 0.000000
6.250000 0.000000 0.000000
6.312500 0.000000 0.000000
6.375000 0.000000 0.000000
6.437500 0.000000 0.000000
6.500000 0.000000 0.000000
6.562500 0.000000 0.000000
6.625000 0.000000 0.000000
6.687500 0.000000 0.000000
6.750000 0.000000 0.000000
6.812500 0.000000 0.000000
6.875000 0.000000 0.000000
6.937500 0.000000 0.000000
7.000000 0.000000 0.000000
0.000000 0.064737 0.000000
0.160545 0.064863 0.000000
0.318932 0.064946 0.000000
0.473853 0.065488 0.000000
0.623276 0.065858 0.000000
0.767683 0.066568 0.000000
0.905769 0.067042 0.000000
1.038900 0.067743 0.000000
1.166215 0.068140 0.000000
1.289366 0.068674 0.000000
1.407737 0.068845 0.000000
1.523042 0.069054 0.000000
1.634849 0.068843 0.000000
1.744969 0.068480 0.000000
1.853345 0.067498 0.000000
1.961823 0.066385 0.000000
2.070709 0.063990 0.000000
2.101941 0.063919 0.000000
2.131398 0.063992 0.000000
2.159007 0.063953 0.000000
2.185920 0.063986 0.000000
2.212069 0.064030 0.000000
2.237830 0.064072 0.000000
2.263150 0.064120 0.000000
2.288215 0.064142 0.000000
2.312980 0.064167 0.000000
2.337572 0.064165 0.000000
2.361944 0.064171 0.000000
2.386199 0.064150 0.000000
2.410287 0.064146 0.000000
2.434300 0.064117 0.000000
2.458183 0.064111 0.000000
2.482025 0.064080 0.000000
2.505766 0.064073 0.000000
2.529513 0.064039 0.000000
2.553190 0.064029 0.000000
2.576976 0.064007 0.000000
2.600792 0.063955 0.000000
2.625023 0.063866 0.000000
2.649605 0.063760 0.000000
2.675302 0.063618 0.000000
2.702217 0.063473 0.000000
2.731531 0.063294 0.000000
2.763740 0.063145 0.000000
2.800213 0.062961 0.000000
2.841832 0.062840 0.000000
2.889443 0.062685 0.000000
2.943087 0.062610 0.000000
3.001544 0.062524 0.000000
3.062827 0.062511 0.000000
3.125062 0.062500 0.000000
3.187512 0.062500 0.000000
3.250002 0.062500 0.000000
3.312500 0.062500 0.000000
3.375000 0.062500 0.000000
3.437500 0.062500 0.000000
3.500000 0.062500 0.000000
3.562500 0.062500 0.000000
3.625000 0.062500 0.000000
3.687500 0.062500 0.000000
3.750000 0.062500 0.000000
3.812500 0.062500 0.000000
3.875000 0.062500 0.000000
3.937500 0.062500 0.000000
4.000000 0.062500 0.000000
4.062500 0.062500 0.000000
4.125000 0.062500 0.000000
4.187500 0.062500 0.000000
4.250000 0.062500 0.000000
4.312500 0.062500 0.000000
4.375000 0.062500 0.000000
4.437500 0.062500 0.000000
4.500000 0.062500 0.000000
4.562500 0.062500 0.000000
4.625000 0.062500 0.000000
4.687500 0.062500 0.000000
4.750000 0.062500 0.000000
4.812500 0.062500 0.000000
4.875000 0.062500 0.000000
4.937500 0.062500 0.000000
5.000000 0.062500 0.000000
5.062500 0.062500 0.000000
5.125000 0.062500 0.000000
5.187500 0.062500 0.000000
5.250000 0.062500 0.000000
5.312500 0.062500 0.000000
5.375000 0.062500 0.000000
5.437500 0.062500 0.000000
5.500000 0.062500 0.000000
5.562500 0.062500 0.000000
5.625000 0.062500 0.000000
5.687500 0.062500 0.000000
5.750000 0.062500 0.000000
5.812500 0.062500 0.000000
5.875000 0.062500 0.000000
5.937500 0.062500 0.000000
6.000000 0.062500 0.000000
6.062500 0.062500 0.000000
6.125000 0.062500 0.000000
6.187500 0.062500 0.000000
6.250000 0.062500 0.000000
6.312500 0.062500 0.000000
6.375000 0.062500 0.000000
6.437500 0.062500 0.000000
6.500000 0.062500 0.000000
6.562500 0.062500 0.000000
6.625000 0.062500 0.000000
6.687500 0.062500 0.000000
6.750000 0.062500 0.000000
6.812500 0.062500 0.000000
6.875000 0.062500 0.000000
6.937500 0.062500 0.000000
7.000000 0.062500 0.000000
0.000000 0.129780 0.000000
0.159635 0.129954 0.000000
0.317374 0.130159 0.000000
0.471424 0.131164 0.000000
0.620602 0.131905 0.000000
0.764342 0.133277 0.000000
0.902446 0.134216 0.000000
1.035071 0.135607 0.000000
1.162449 0.136409 0.000000
1.285135 0.137487 0.000000
1.403499 0.137839 0.000000
1.518361 0.138273 0.000000
1.630067 0.137881 0.000000
1.739733 0.137176 0.000000
1.847965 0.135216 0.000000
1.955875 0.133242 0.000000
2.064474 0.128501 0.000000
2.095559 0.128141 0.000000
2.124931 0.128162 0.000000
2.152463 0.128101 0.000000
2.179354 0.128108 0.000000
2.205469 0.128133 0.000000
2.231264 0.128139 0.000000
2.256617 0.128165 0.000000
2.281772 0.128148 0.000000
2.306623 0.128145 0.000000
2.331343 0.128105 0.000000
2.355839 0.128074 0.000000
2.380244 0.128015 0.000000
2.404476 0.127969 0.000000
2.428649 0.127901 0.000000
2.452691 0.127845 0.000000
2.476706 0.127771 0.000000
2.500630 0.127683 0.000000
2.524578 0.127566 0.000000
2.548487 0.127446 0.000000
2.572508 0.127318 0.000000
2.596618 0.127169 0.000000
2.621074 0.126954 0.000000
2.645998 0.126732 0.000000
2.671874 0.126454 0.000000
2.699217 0.126194 0.000000
2.728652 0.125907 0.000000
2.761423 0.125663 0.000000
2.798003 0.125434 0.000000
2.840360 0.125259 0.000000
2.888176 0.125130 0.000000
2.942562 0.125048 0.000000
3.001260 0.125016 0.000000
3.062781 0.125002 0.000000
3.125043 0.125002 0.000000
3.187510 0.125000 0.000000
3.250001 0.125000 0.000000
3.312500 0.125000 0.000000
3.375000 0.125000 0.000000
3.437500 0.125000 0.000000
3.500000 0.125000 0.000000
3.562500 0.125000 0.000000
3.625000 0.125000 0.000000
3.687500 0.125000 0.000000
3.750000 0.125000 0.000000
3.812500 0.125000 0.000000
3.875000 0.125000 0.000000
3.937500 0.125000 0.000000
4.000000 0.125000 0.000000
4.062500 0.125000 0.000000
4.125000 0.125000 0.000000
4.187500 0.125000 0.000000
4.250000 0.125000 0.000000
4.312500 0.125000 0.000000
4.375000 0.125000 0.000000
4.437500 0.125000 0.000000
4.500000 0.125000 0.000000
4.562500 0.125000 0.000000
4.625000 0.125000 0.000000
4.687500 0.125000 0.000000
4.750000 0.125000 0.000000
4.812500 0.125000 0.000000
4.875000 0.125000 0.000000
4.937500 0.125000 0.000000
5.000000 0.125000 0.000000
5.062500 0.125000 0.000000
5.125000 0.125000 0.000000
5.187500 0.125000 0.000000
5.250000 0.125000 0.000000
5.312500 0.125000 0.000000
5.375000 0.125000 0.000000
5.437500 0.125000 0.000000
5.500000 0.125000 0.000000
5.562500 0.125000 0.000000
5.625000 0.125000 0.000000
5.687500 0.125000 0.000000
5.750000 0.125000 0.000000
5.812500 0.125000 0.000000
5.875000 0.125000 0.000000
5.937500 0.125000 0.000000
6.000000 0.125000 0.000000
6.062500 0.125000 0.000000
6.125000 0.125000 0.000000
6.187500 0.125000 0.000000
6.250000 0.125000 0.000000
6.312500 0.125000 0.000000
6.375000 0.125000 0.000000
6.437500 0.125000 0.000000
6.500000 0.125000 0.000000
6.562500 0.125000 0.000000
6.625000 0.125000 0.000000
6.687500 0.125000 0.000000
6.750000 0.125000 0.000000
6.812500 0.125000 0.000000
6.875000 0.125000 0.000000
6.937500 0.125000 0.000000
7.000000 0.125000 0.000000
0.000000 0.194943 0.000000
0.160195 0.195174 0.000000
0.318246 0.195504 0.000000
0.472925 0.196970 0.000000
0.622111 0.198096 0.000000
0.766384 0.200122 0.000000
0.904267 0.201557 0.000000
1.037231 0.203629 0.000000
1.164253 0.204880 0.000000
1.287086 0.206490 0.000000
1.405018 0.207060 0.000000
1.519878 0.207687 0.000000
1.631145 0.207161 0.000000
1.740520 0.206168 0.000000
1.847757 0.203408 0.000000
1.954542 0.200665 0.000000
2.061800 0.193481 0.000000
2.092679 0.192758 0.000000
2.121982 0.192359 0.000000
2.149579 0.192133 0.000000
2.176580 0.191995 0.000000
2.202895 0.191900 0.000000
2.228875 0.191788 0.000000
2.254460 0.191721 0.000000
2.279822 0.191601 0.000000
2.304913 0.191523 0.000000
2.329847 0.191393 0.000000
2.354577 0.191302 0.000000
2.379198 0.191165 0.000000
2.403671 0.191051 0.000000
2.428081 0.190894 0.000000
2.452388 0.190738 0.000000
2.476679 0.190533 0.000000
2.500894 0.190328 0.000000
2.525106 0.190103 0.000000
2.549221 0.189927 0.000000
2.573441 0.189721 0.000000
2.597680 0.189504 0.000000
2.622329 0.189231 0.000000
2.647295 0.188953 0.000000
2.673376 0.188642 0.000000
2.700633 0.188359 0.000000
2.730300 0.188082 0.000000
2.762806 0.187865 0.000000
2.799590 0.187692 0.000000
2.841432 0.187587 0.000000
2.889250 0.187529 0.000000
2.942995 0.187509 0.000000
3.001518 0.187502 0.000000
3.062820 0.187501 0.000000
3.125061 0.187500 0.000000
3.187512 0.187500 0.000000
3.250002 0.187500 0.000000
3.312500 0.187500 0.000000
3.375000 0.187500 0.000000
3.437500 0.187500 0.000000
3.500000 0.187500 0.000000
3.562500 0.187500 0.000000
3.625000 0.187500 0.000000
3.687500 0.187500 0.000000
3.750000 0.187500 0.000000
3.812500 0.187500 0.000000
3.875000 0.187500 0.000000
3.937500 0.187500 0.000000
4.000000 0.187500 0.000000
4.062500 0.187500 0.000000
4.125000 0.187500 0.000000
4.187500 0.187500 0.000000
4.250000 0.187500 0.000000
4.312500 0.187500 0.000000
4.375000 0.187500 0.000000
4.437500 0.187500 0.000000
4.500000 0.187500 0.000000
4.562500 0.187500 0.000000
4.625000 0.187500 0.000000
4.687500 0.187500 0.000000
4.750000 0.187500 0.000000
4.812500 0.187500 0.000000
4.875000 0.187500 0.000000
4.937500 0.187500 0.000000
5.000000 0.187500 0.000000
5.062500 0.187500 0.000000
5.125000 0.187500 0.000000
5.187500 0.187500 0.000000
5.250000 0.187500 0.000000
5.312500 0.187500 0.000000
5.375000 0.187500 0.000000
5.437500 0.187500 0.000000
5.500000 0.187500 0.000000
5.562500 0.187500 0.000000
5.625000 0.187500 0.000000
5.687500 0.187500 0.000000
5.750000 0.187500 0.000000
5.812500 0.187500 0.000000
5.875000 0.187500 0.000000
5.937500 0.187500 0.000000
6.000000 0.187500 0.000000
6.062500 0.187500 0.000000
6.125000 0.187500 0.000000
6.187500 0.187500 0.000000
6.250000 0.187500 0.000000
6.312500 0.187500 0.000000
6.375000 0.187500 0.000000
6.437500 0.187500 0.000000
6.500000 0.187500 0.000000
6.562500 0.187500 0.000000
6.625000 0.187500 0.000000
6.687500 0.187500 0.000000
6.750000 0.187500 0.000000
6.812500 0.187500 0.000000
6.875000 0.187500 0.000000
6.937500 0.187500 0.000000
7.000000 0.187500 0.000000
0.000000 0.260216 0.000000
0.159647 0.260512 0.000000
0.317402 0.260942 0.000000
0.471460 0.262873 0.000000
0.620654 0.264365 0.000000
0.764347 0.267059 0.000000
0.902357 0.268993 0.000000
1.034745 0.271785 0.000000
1.161801 0.273508 0.000000
1.283984 0.275719 0.000000
1.401747 0.276546 0.000000
1.515903 0.277417 0.000000
1.626951 0.276744 0.000000
1.735733 0.275712 0.000000
1.842612 0.272301 0.000000
1.948589 0.269019 0.000000
2.055884 0.259074 0.000000
2.086918 0.257434 0.000000
2.116428 0.256460 0.000000
2.144177 0.255859 0.000000
2.171383 0.255436 0.000000
2.197854 0.255157 0.000000
2.224020 0.254903 0.000000
2.249743 0.254705 0.000000
2.275264 0.254485 0.000000
2.300471 0.254294 0.000000
2.325546 0.254093 0.000000
2.350398 0.253888 0.000000
2.375172 0.253667 0.000000
2.399793 0.253390 0.000000
2.424393 0.253106 0.000000
2.448904 0.252763 0.000000
2.473391 0.252445 0.000000
2.497741 0.252138 0.000000
2.522039 0.251919 0.000000
2.546220 0.251705 0.000000
2.570518 0.251492 0.000000
2.594906 0.251238 0.000000
2.619631 0.250975 0.000000
2.644819 0.250682 0.000000
2.670927 0.250408 0.000000
2.698512 0.250149 0.000000
2.728137 0.249961 0.000000
2.761114 0.249822 0.000000
2.797813 0.249791 0.000000
2.840297 0.249797 0.000000
2.888134 0.249879 0.000000
2.942557 0.249932 0.000000
3.001244 0.249984 0.000000
3.062779 0.249992 0.000000
3.125042 0.250000 0.000000
3.187510 0.249999 0.000000
3.250001 0.250000 0.000000
3.312500 0.250000 0.000000
3.375000 0.250000 0.000000
3.437500 0.250000 0.000000
3.500000 0.250000 0.000000
3.562500 0.250000 0.000000
3.625000 0.250000 0.000000
3.687500 0.250000 0.000000
3.750000 0.250000 0.000000
3.812500 0.250000 0.000000
3.875000 0.250000 0.000000
3.937500 0.250000 0.000000
4.000000 0.250000 0.000000
4.062500 0.250000 0.000000
4.125000 0.250000 0.000000
4.187500 0.250000 0.000000
4.250000 0.250000 0.000000
4.312500 0.250000 0.000000
4.375000 0.250000 0.000000
4.437500 0.250000 0.000000
4.500000 0.250000 0.000000
4.562500 0.250000 0.000000
4.625000 0.250000 0.000000
4.687500 0.250000 0.000000
4.750000 0.250000 0.000000
4.812500 0.250000 0.000000
4.875000 0.250000 0.000000
4.937500 0.250000 0.000000
5.000000 0.250000 0.000000
5.062500 0.250000 0.000000
5.125000 0.250000 0.000000
5.187500 0.250000 0.000000
5.250000 0.250000 0.000000
5.312500 0.250000 0.000000
5.375000 0.250000 0.000000
5.437500 0.250000 0.000000
5.500000 0.250000 0.000000
5.562500 0.250000 0.000000
5.625000 0.250000 0.000000
5.687500 0.250000 0.000000
5.750000 0.250000 0.000000
5.812500 0.250000 0.000000
5.875000 0.250000 0.000000
5.937500 0.250000 0.000000
6.000000 0.250000 0.000000
6.062500 0.250000 0.000000
6.125000 0.250000 0.000000
6.187500 0.250000 0.000000
6.250000 0.250000 0.000000
6.312500 0.250000 0.000000
6.375000 0.250000 0.000000
6.437500 0.250000 0.000000
6.500000 0.250000 0.000000
6.562500 0.250000 0.000000
6.625000 0.250000 0.000000
6.687500 0.250000 0.000000
6.750000 0.250000 0.000000
6.812500 0.250000 0.000000
6.875000 0.250000 0.000000
6.937500 0.250000 0.000000
7.000000 0.250000 0.000000
0.000000 0.325554 0.000000
0.160555 0.325906 0.000000
0.318928 0.326486 0.000000
0.473914 0.328883 0.000000
0.623312 0.330802 0.000000
0.767721 0.334184 0.000000
0.905561 0.336687 0.000000
1.038330 0.340232 0.000000
1.164928 0.342498 0.000000
1.287169 0.345325 0.000000
1.404338 0.346448 0.000000
1.518355 0.347514 0.000000
1.628738 0.346704 0.000000
1.737045 0.345607 0.000000
1.842940 0.341672 0.000000
1.948035 0.337640 0.000000
2.054763 0.324002 0.000000
2.085874 0.321733 0.000000
2.115409 0.320139 0.000000
2.143227 0.319173 0.000000
2.170457 0.318422 0.000000
2.197013 0.317917 0.000000
2.223241 0.317473 0.000000
2.249088 0.317117 0.000000
2.274713 0.316766 0.000000
2.300083 0.316453 0.000000
2.325316 0.316077 0.000000
2.350414 0.315634 0.000000
2.375466 0.315155 0.000000
2.400438 0.314634 0.000000
2.425343 0.314194 0.000000
2.450105 0.313731 0.000000
2.474769 0.313446 0.000000
2.499254 0.313187 0.000000
2.523653 0.312981 0.000000
2.547927 0.312763 0.000000
2.572347 0.312522 0.000000
2.596797 0.312279 0.000000
2.621689 0.312035 0.000000
2.646889 0.311800 0.000000
2.673197 0.311608 0.000000
2.700657 0.311466 0.000000
2.730501 0.311435 0.000000
2.763139 0.311472 0.000000
2.799997 0.311653 0.000000
2.841837 0.311851 0.000000
2.889580 0.312122 0.000000
2.943198 0.312305 0.000000
3.001605 0.312438 0.000000
3.062845 0.312478 0.000000
3.125069 0.312494 0.000000
3.187514 0.312497 0.000000
3.250003 0.312499 0.000000
3.312501 0.312499 0.000000
3.375000 0.312500 0.000000
3.437500 0.312500 0.000000
3.500000 0.312500 0.000000
3.562500 0.312500 0.000000
3.625000 0.312500 0.000000
3.687500 0.312500 0.000000
3.750000 0.312500 0.000000
3.812500 0.312500 0.000000
3.875000 0.312500 0.000000
3.937500 0.312500 0.000000
4.000000 0.312500 0.000000
4.062500 0.312500 0.000000
4.125000 0.312500 0.000000
4.187500 0.312500 0.000000
4.250000 0.312500 0.000000
4.312500 0.312500 0.000000
4.375000 0.312500 0.000000
4.437500 0.312500 0.000000
4.500000 0.312500 0.000000
4.562500 0.312500 0.000000
4.625000 0.312500 0.000000
4.687500 0.312500 0.000000
4.750000 0.312500 0.000000
4.812500 0.312500 0.000000
4.875000 0.312500 0.000000
4.937500 0.312500 0.000000
5.000000 0.312500 0.000000
5.062500 0.312500 0.000000
5.125000 0.312500 0.000000
5.187500 0.312500 0.000000
5.250000 0.312500 0.000000
5.312500 0.312500 0.000000
5.375000 0.312500 0.000000
5.437500 0.312500 0.000000
5.500000 0.312500 0.000000
5.562500 0.312500 0.000000
5.625000 0.312500 0.000000
5.687500 0.312500 0.000000
5.750000 0.312500 0.000000
5.812500 0.312500 0.000000
5.875000 0.312500 0.000000
5.937500 0.312500 0.000000
6.000000 0.312500 0.000000
6.062500 0.312500 0.000000
6.125000 0.312500 0.000000
6.187500 0.312500 0.000000
6.250000 0.312500 0.000000
6.312500 0.312500 0.000000
6.375000 0.312500 0.000000
6.437500 0.312500 0.000000
6.500000 0.312500 0.000000
6.562500 0.312500 0.000000
6.625000 0.312500 0.000000
6.687500 0.312500 0.000000
6.750000 0.312500 0.000000
6.812500 0.312500 0.000000
6.875000 0.312500 0.000000
6.937500 0.312500 0.000000
7.000000 0.312500 0.000000
0.000000 0.390936 0.000000
0.160300 0.391368 0.000000
0.318657 0.392051 0.000000
0.473270 0.394940 0.000000
0.622889 0.397257 0.000000
0.766876 0.401371 0.000000
0.904951 0.404453 0.000000
1.037181 0.408835 0.000000
1.163787 0.411697 0.000000
1.285301 0.415244 0.000000
1.402200 0.416711 0.000000
1.515348 0.418110 0.000000
1.625242 0.417178 0.000000
1.732753 0.416216 0.000000
1.838388 0.411619 0.000000
1.942981 0.407103 0.000000
2.050528 0.388981 0.000000
2.081986 0.385801 0.000000
2.111730 0.383715 0.000000
2.139594 0.382319 0.000000
2.166885 0.381211 0.000000
2.193438 0.380386 0.000000
2.219722 0.379670 0.000000
2.245572 0.379072 0.000000
2.271250 0.378492 0.000000
2.296737 0.377824 0.000000
2.322257 0.377163 0.000000
2.347685 0.376301 0.000000
2.373041 0.375610 0.000000
2.398130 0.374844 0.000000
2.423065 0.374463 0.000000
2.447763 0.373945 0.000000
2.472330 0.373808 0.000000
2.496750 0.373482 0.000000
2.521153 0.373266 0.000000
2.545535 0.372972 0.000000
2.570051 0.372775 0.000000
2.594680 0.372525 0.000000
2.619674 0.372386 0.000000
2.645140 0.372208 0.000000
2.671504 0.372197 0.000000
2.699317 0.372189 0.000000
2.729113 0.372425 0.000000
2.762199 0.372679 0.000000
2.798903 0.373199 0.000000
2.841283 0.373646 0.000000
2.888881 0.374230 0.000000
2.943017 0.374575 0.000000
3.001426 0.374865 0.000000
3.062841 0.374934 0.000000
3.125055 0.374990 0.000000
3.187517 0.374988 0.000000
3.250003 0.374998 0.000000
3.312501 0.374997 0.000000
3.375000 0.374999 0.000000
3.437500 0.374999 0.000000
3.500000 0.375000 0.000000
3.562500 0.375000 0.000000
3.625000 0.375000 0.000000
3.687500 0.375000 0.000000
3.750000 0.375000 0.000000