# vtk DataFile Version 2.0
Mesh for Fierro
ASCII 
DATASET UNSTRUCTURED_GRID

POINTS 16611 float
0.000000 0.000000 0.000000
0.175600 0.000000 0.000000
0.350510 0.000000 0.000000
0.523236 0.000000 0.000000
0.692863 0.000000 0.000000
0.858670 0.000000 0.000000
1.020254 0.000000 0.000000
1.177547 0.000000 0.000000
1.330472 0.000000 0.000000
1.479517 0.000000 0.000000
1.624778 0.000000 0.000000
1.767380 0.000000 0.000000
1.907703 0.000000 0.000000
2.047793 0.000000 0.000000
2.188871 0.000000 0.000000
2.334336 0.000000 0.000000
2.489513 0.000000 0.000000
2.537193 0.000000 0.000000
2.582205 0.000000 0.000000
2.624436 0.000000 0.000000
2.665256 0.000000 0.000000
2.704592 0.000000 0.000000
2.742884 0.000000 0.000000
2.780152 0.000000 0.000000
2.816618 0.000000 0.000000
2.852297 0.000000 0.000000
2.887324 0.000000 0.000000
2.921727 0.000000 0.000000
2.955636 0.000000 0.000000
2.989091 0.000000 0.000000
3.022221 0.000000 0.000000
3.055024 0.000000 0.000000
3.087596 0.000000 0.000000
3.119890 0.000000 0.000000
3.151932 0.000000 0.000000
3.183582 0.000000 0.000000
3.214802 0.000000 0.000000
3.245527 0.000000 0.000000
3.275834 0.000000 0.000000
3.305994 0.000000 0.000000
3.336048 0.000000 0.000000
3.365873 0.000000 0.000000
3.395642 0.000000 0.000000
3.425308 0.000000 0.000000
3.454874 0.000000 0.000000
3.483987 0.000000 0.000000
3.512674 0.000000 0.000000
3.541399 0.000000 0.000000
3.569842 0.000000 0.000000
3.597870 0.000000 0.000000
3.625950 0.000000 0.000000
3.654098 0.000000 0.000000
3.681830 0.000000 0.000000
3.709149 0.000000 0.000000
3.736198 0.000000 0.000000
3.762483 0.000000 0.000000
3.788778 0.000000 0.000000
3.815092 0.000000 0.000000
3.841976 0.000000 0.000000
3.869449 0.000000 0.000000
3.898196 0.000000 0.000000
3.928604 0.000000 0.000000
3.961490 0.000000 0.000000
3.997833 0.000000 0.000000
4.038330 0.000000 0.000000
4.084209 0.000000 0.000000
4.135305 0.000000 0.000000
4.191639 0.000000 0.000000
4.251337 0.000000 0.000000
4.312982 0.000000 0.000000
4.375179 0.000000 0.000000
4.437593 0.000000 0.000000
4.500047 0.000000 0.000000
4.562532 0.000000 0.000000
4.625018 0.000000 0.000000
4.687513 0.000000 0.000000
4.750007 0.000000 0.000000
4.812506 0.000000 0.000000
4.875003 0.000000 0.000000
4.937502 0.000000 0.000000
5.000001 0.000000 0.000000
5.062501 0.000000 0.000000
5.125000 0.000000 0.000000
5.187500 0.000000 0.000000
5.250000 0.000000 0.000000
5.312500 0.000000 0.000000
5.375000 0.000000 0.000000
5.437500 0.000000 0.000000
5.500000 0.000000 0.000000
5.562500 0.000000 0.000000
5.625000 0.000000 0.000000
5.687500 0.000000 0.000000
5.750000 0.000000 0.000000
5.812500 0.000000 0.000000
5.875000 0.000000 0.000000
5.937500 0.000000 0.000000
6.000000 0.000000 0.000000
6.062500 0.000000 0.000000
6.125000 0.000000 0.000000
6.187500 0.000000 0.000000
6.250000 0.000000 0.000000
6.312500 0.000000 0.000000
6.375000 0.000000 0.000000
6.437500 0.000000 0.000000
6.500000 0.000000 0.000000
6.562500 0.000000 0.000000
6.625000 0.000000 0.000000
6.687500 0.000000 0.000000
6.750000 0.000000 0.000000
6.812500 0.000000 0.000000
6.875000 0.000000 0.000000
6.937500 0.000000 0.000000
7.000000 0.000000 0.000000
0.000000 0.079583 0.000000
0.175507 0.079740 0.000000
0.350309 0.079943 0.000000
0.523025 0.081151 0.000000
0.692572 0.082119 0.000000
0.858453 0.083861 0.000000
1.019986 0.085168 0.000000
1.177375 0.087012 0.000000
1.330221 0.088169 0.000000
1.479301 0.089638 0.000000
1.624418 0.090073 0.000000
1.766961 0.090458 0.000000
1.907027 0.089342 0.000000
2.046940 0.087562 0.000000
2.187662 0.083366 0.000000
2.332785 0.078302 0.000000
2.487674 0.067002 0.000000
2.535108 0.064623 0.000000
2.579822 0.062991 0.000000
2.621812 0.061891 0.000000
2.662334 0.060961 0.000000
2.701484 0.060316 0.000000
2.739567 0.059618 0.000000
2.776724 0.059086 0.000000
2.813043 0.058438 0.000000
2.848663 0.057947 0.000000
2.883606 0.057325 0.000000
2.917993 0.056821 0.000000
2.951819 0.056171 0.000000
2.985196 0.055603 0.000000
3.018115 0.054877 0.000000
3.050695 0.054248 0.000000
3.082956 0.053438 0.000000
3.115009 0.052779 0.000000
3.146860 0.051999 0.000000
3.178549 0.051551 0.000000
3.209986 0.051082 0.000000
3.241237 0.050680 0.000000
3.272286 0.050203 0.000000
3.303096 0.049526 0.000000
3.333508 0.049170 0.000000
3.363625 0.048657 0.000000
3.393416 0.048224 0.000000
3.422999 0.047698 0.000000
3.452370 0.047282 0.000000
3.481652 0.046969 0.000000
3.510837 0.046532 0.000000
3.539748 0.046335 0.000000
3.568475 0.046403 0.000000
3.597029 0.045890 0.000000
3.625265 0.045662 0.000000
3.653473 0.045677 0.000000
3.681284 0.045892 0.000000
3.708686 0.046160 0.000000
3.735862 0.046741 0.000000
3.762271 0.047480 0.000000
3.788641 0.048457 0.000000
3.814982 0.049424 0.000000
3.841938 0.050644 0.000000
3.869409 0.051803 0.000000
3.898254 0.053195 0.000000
3.928649 0.054441 0.000000
3.961687 0.055869 0.000000
3.998027 0.057051 0.000000
4.038717 0.058353 0.000000
4.084569 0.059325 0.000000
4.135781 0.060359 0.000000
4.191969 0.061013 0.000000
4.251599 0.061645 0.000000
4.313093 0.061925 0.000000
4.375258 0.062176 0.000000
4.437632 0.062259 0.000000
4.500084 0.062356 0.000000
4.562551 0.062391 0.000000
4.625036 0.062436 0.000000
4.687522 0.062451 0.000000
4.750016 0.062472 0.000000
4.812509 0.062479 0.000000
4.875007 0.062488 0.000000
4.937504 0.062492 0.000000
5.000003 0.062495 0.000000
5.062501 0.062497 0.000000
5.125001 0.062498 0.000000
5.187501 0.062499 0.000000
5.250000 0.062499 0.000000
5.312500 0.062500 0.000000
5.375000 0.062500 0.000000
5.437500 0.062500 0.000000
5.500000 0.062500 0.000000
5.562500 0.062500 0.000000
5.625000 0.062500 0.000000
5.687500 0.062500 0.000000
5.750000 0.062500 0.000000
5.812500 0.062500 0.000000
5.875000 0.062500 0.000000
5.937500 0.062500 0.000000
6.000000 0.062500 0.000000
6.062500 0.062500 0.000000
6.125000 0.062500 0.000000
6.187500 0.062500 0.000000
6.250000 0.062500 0.000000
6.312500 0.062500 0.000000
6.375000 0.062500 0.000000
6.437500 0.062500 0.000000
6.500000 0.062500 0.000000
6.562500 0.062500 0.000000
6.625000 0.062500 0.000000
6.687500 0.062500 0.000000
6.750000 0.062500 0.000000
6.812500 0.062500 0.000000
6.875000 0.062500 0.000000
6.937500 0.062500 0.000000
7.000000 0.062500 0.000000
0.000000 0.159363 0.000000
0.174885 0.159638 0.000000
0.349197 0.160041 0.000000
0.521396 0.162398 0.000000
0.690764 0.164312 0.000000
0.856341 0.167757 0.000000
1.017923 0.170372 0.000000
1.175091 0.174073 0.000000
1.327970 0.176448 0.000000
1.476668 0.179449 0.000000
1.621598 0.180427 0.000000
1.763437 0.181331 0.000000
1.902953 0.179264 0.000000
2.041792 0.175858 0.000000
2.181800 0.167647 0.000000
2.325811 0.157573 0.000000
2.482088 0.134483 0.000000
2.529726 0.129918 0.000000
2.574488 0.126852 0.000000
2.616158 0.124767 0.000000
2.656530 0.122897 0.000000
2.695314 0.121588 0.000000
2.733304 0.120102 0.000000
2.770197 0.119024 0.000000
2.806523 0.117629 0.000000
2.842007 0.116599 0.000000
2.877105 0.115209 0.000000
2.911506 0.114211 0.000000
2.945595 0.112820 0.000000
2.979032 0.111825 0.000000
3.012172 0.110390 0.000000
3.044735 0.109255 0.000000
3.077088 0.107628 0.000000
3.109035 0.106237 0.000000
3.140945 0.104460 0.000000
3.172624 0.103182 0.000000
3.204365 0.101871 0.000000
3.236126 0.100635 0.000000
3.268085 0.099360 0.000000
3.299438 0.098899 0.000000
3.330234 0.098311 0.000000
3.360446 0.097744 0.000000
3.390362 0.096960 0.000000
3.419827 0.096135 0.000000
3.449233 0.095151 0.000000
3.478489 0.094161 0.000000
3.507543 0.093207 0.000000
3.536485 0.092772 0.000000
3.565497 0.092246 0.000000
3.594431 0.091581 0.000000
3.622889 0.091322 0.000000
3.651264 0.091373 0.000000
3.679257 0.091695 0.000000
3.706797 0.092255 0.000000
3.734031 0.093369 0.000000
3.760543 0.094714 0.000000
3.786993 0.096578 0.000000
3.813499 0.098426 0.000000
3.840478 0.100792 0.000000
3.868144 0.102989 0.000000
3.896965 0.105704 0.000000
3.927660 0.108048 0.000000
3.960687 0.110880 0.000000
3.997527 0.113092 0.000000
4.038271 0.115784 0.000000
4.084755 0.117617 0.000000
4.135980 0.119934 0.000000
4.192502 0.121210 0.000000
4.251918 0.122791 0.000000
4.313382 0.123349 0.000000
4.375411 0.124072 0.000000
4.437765 0.124246 0.000000
4.500159 0.124572 0.000000
4.562615 0.124644 0.000000
4.625070 0.124805 0.000000
4.687552 0.124837 0.000000
4.750030 0.124914 0.000000
4.812523 0.124928 0.000000
4.875012 0.124964 0.000000
4.937510 0.124969 0.000000
5.000005 0.124986 0.000000
5.062504 0.124988 0.000000
5.125002 0.124995 0.000000
5.187502 0.124995 0.000000
5.250000 0.124998 0.000000
5.312501 0.124998 0.000000
5.375000 0.124999 0.000000
5.437500 0.124999 0.000000
5.500000 0.125000 0.000000
5.562500 0.125000 0.000000
5.625000 0.125000 0.000000
5.687500 0.125000 0.000000
5.750000 0.125000 0.000000
5.812500 0.125000 0.000000
5.875000 0.125000 0.000000
5.937500 0.125000 0.000000
6.000000 0.125000 0.000000
6.062500 0.125000 0.000000
6.125000 0.125000 0.000000
6.187500 0.125000 0.000000
6.250000 0.125000 0.000000
6.312500 0.125000 0.000000
6.375000 0.125000 0.000000
6.437500 0.125000 0.000000
6.500000 0.125000 0.000000
6.562500 0.125000 0.000000
6.625000 0.125000 0.000000
6.687500 0.125000 0.000000
6.750000 0.125000 0.000000
6.812500 0.125000 0.000000
6.875000 0.125000 0.000000
6.937500 0.125000 0.000000
7.000000 0.125000 0.000000
0.000000 0.239130 0.000000
0.175665 0.239519 0.000000
0.350623 0.240151 0.000000
0.523572 0.243665 0.000000
0.693329 0.246572 0.000000
0.859480 0.251743 0.000000
1.021145 0.255740 0.000000
1.178600 0.261342 0.000000
1.331216 0.265058 0.000000
1.479836 0.269657 0.000000
1.624065 0.271357 0.000000
1.765346 0.272859 0.000000
1.903672 0.270080 0.000000
2.041258 0.265158 0.000000
2.179165 0.253250 0.000000
2.321095 0.238141 0.000000
2.474376 0.203500 0.000000
2.521076 0.196918 0.000000
2.564948 0.192327 0.000000
2.606193 0.189071 0.000000
2.646091 0.186309 0.000000
2.684748 0.184090 0.000000
2.722465 0.181915 0.000000
2.759333 0.180063 0.000000
2.795441 0.178087 0.000000
2.830875 0.176315 0.000000
2.865669 0.174364 0.000000
[...]
POINT_DATA 16611 
VECTORS pos float 
0.000000 0.000000 0.000000
0.175600 0.000000 0.000000
0.350510 0.000000 0.000000
0.523236 0.000000 0.000000
0.692863 0.000000 0.000000
0.858670 0.000000 0.000000
1.020254 0.000000 0.000000
1.177547 0.000000 0.000000
1.330472 0.000000 0.000000
1.479517 0.000000 0.000000
1.624778 0.000000 0.000000
1.767380 0.000000 0.000000
1.907703 0.000000 0.000000
2.047793 0.000000 0.000000
2.188871 0.000000 0.000000
2.334336 0.000000 0.000000
2.489513 0.000000 0.000000
2.537193 0.000000 0.000000
2.582205 0.000000 0.000000
2.624436 0.000000 0.000000
2.665256 0.000000 0.000000
2.704592 0.000000 0.000000
2.742884 0.000000 0.000000
2.780152 0.000000 0.000000
2.816618 0.000000 0.000000
2.852297 0.000000 0.000000
2.887324 0.000000 0.000000
2.921727 0.000000 0.000000
2.955636 0.000000 0.000000
2.989091 0.000000 0.000000
3.022221 0.000000 0.000000
3.055024 0.000000 0.000000
3.087596 0.000000 0.000000
3.119890 0.000000 0.000000
3.151932 0.000000 0.000000
3.183582 0.000000 0.000000
3.214802 0.000000 0.000000
3.245527 0.000000 0.000000
3.275834 0.000000 0.000000
3.305994 0.000000 0.000000
3.336048 0.000000 0.000000
3.365873 0.000000 0.000000
3.395642 0.000000 0.000000
3.425308 0.000000 0.000000
3.454874 0.000000 0.000000
3.483987 0.000000 0.000000
3.512674 0.000000 0.000000
3.541399 0.000000 0.000000
3.569842 0.000000 0.000000
3.597870 0.000000 0.000000
3.625950 0.000000 0.000000
3.654098 0.000000 0.000000
3.681830 0.000000 0.000000
3.709149 0.000000 0.000000
3.736198 0.000000 0.000000
3.762483 0.000000 0.000000
3.788778 0.000000 0.000000
3.815092 0.000000 0.000000
3.841976 0.000000 0.000000
3.869449 0.000000 0.000000
3.898196 0.000000 0.000000
3.928604 0.000000 0.000000
3.961490 0.000000 0.000000
3.997833 0.000000 0.000000
4.038330 0.000000 0.000000
4.084209 0.000000 0.000000
4.135305 0.000000 0.000000
4.191639 0.000000 0.000000
4.251337 0.000000 0.000000
4.312982 0.000000 0.000000
4.375179 0.000000 0.000000
4.437593 0.000000 0.000000
4.500047 0.000000 0.000000
4.562532 0.000000 0.000000
4.625018 0.000000 0.000000
4.687513 0.000000 0.000000
4.750007 0.000000 0.000000
4.812506 0.000000 0.000000
4.875003 0.000000 0.000000
4.937502 0.000000 0.000000
5.000001 0.000000 0.000000
5.062501 0.000000 0.000000
5.125000 0.000000 0.000000
5.187500 0.000000 0.000000
5.250000 0.000000 0.000000
5.312500 0.000000 0.000000
5.375000 0.000000 0.000000
5.437500 0.000000 0.000000
5.500000 0.000000 0.000000
5.562500 0.000000 0.000000
5.625000 0.000000 0.000000
5.687500 0.000000 0.000000
5.750000 0.000000 0.000000
5.812500 0.000000 0.000000
5.875000 0.000000 0.000000
5.937500 0.000000 0.000000
6.000000 0.000000 0.000000
6.062500 0.000000 0.000000
6.125000 0.000000 0.000000
6.187500 0.000000 0.000000
6.250000 0.000000 0.000000
6.312500 0.000000 0.000000
6.375000 0.000000 0.000000
6.437500 0.000000 0.000000
6.500000 0.000000 0.000000
6.562500 0.000000 0.000000
6.625000 0.000000 0.000000
6.687500 0.000000 0.000000
6.750000 0.000000 0.000000
6.812500 0.000000 0.000000
6.875000 0.000000 0.000000
6.937500 0.000000 0.000000
7.000000 0.000000 0.000000
0.000000 0.079583 0.000000
0.175507 0.079740 0.000000
0.350309 0.079943 0.000000
0.523025 0.081151 0.000000
0.692572 0.082119 0.000000
0.858453 0.083861 0.000000
1.019986 0.085168 0.000000
1.177375 0.087012 0.000000
1.330221 0.088169 0.000000
1.479301 0.089638 0.000000
1.624418 0.090073 0.000000
1.766961 0.090458 0.000000
1.907027 0.089342 0.000000
2.046940 0.087562 0.000000
2.187662 0.083366 0.000000
2.332785 0.078302 0.000000
2.487674 0.067002 0.000000
2.535108 0.064623 0.000000
2.579822 0.062991 0.000000
2.621812 0.061891 0.000000
2.662334 0.060961 0.000000
2.701484 0.060316 0.000000
2.739567 0.059618 0.000000
2.776724 0.059086 0.000000
2.813043 0.058438 0.000000
2.848663 0.057947 0.000000
2.883606 0.057325 0.000000
2.917993 0.056821 0.000000
2.951819 0.056171 0.000000
2.985196 0.055603 0.000000
3.018115 0.054877 0.000000
3.050695 0.054248 0.000000
3.082956 0.053438 0.000000
3.115009 0.052779 0.000000
3.146860 0.051999 0.000000
3.178549 0.051551 0.000000
3.209986 0.051082 0.000000
3.241237 0.050680 0.000000
3.272286 0.050203 0.000000
3.303096 0.049526 0.000000
3.333508 0.049170 0.000000
3.363625 0.048657 0.000000
3.393416 0.048224 0.000000
3.422999 0.047698 0.000000
3.452370 0.047282 0.000000
3.481652 0.046969 0.000000
3.510837 0.046532 0.000000
3.539748 0.046335 0.000000
3.568475 0.046403 0.000000
3.597029 0.045890 0.000000
3.625265 0.045662 0.000000
3.653473 0.045677 0.000000
3.681284 0.045892 0.000000
3.708686 0.046160 0.000000
3.735862 0.046741 0.000000
3.762271 0.047480 0.000000
3.788641 0.048457 0.000000
3.814982 0.049424 0.000000
3.841938 0.050644 0.000000
3.869409 0.051803 0.000000
3.898254 0.053195 0.000000
3.928649 0.054441 0.000000
3.961687 0.055869 0.000000
3.998027 0.057051 0.000000
4.038717 0.058353 0.000000
4.084569 0.059325 0.000000
4.135781 0.060359 0.000000
4.191969 0.061013 0.000000
4.251599 0.061645 0.000000
4.313093 0.061925 0.000000
4.375258 0.062176 0.000000
4.437632 0.062259 0.000000
4.500084 0.062356 0.000000
4.562551 0.062391 0.000000
4.625036 0.062436 0.000000
4.687522 0.062451 0.000000
4.750016 0.062472 0.000000
4.812509 0.062479 0.000000
4.875007 0.062488 0.000000
4.937504 0.062492 0.000000
5.000003 0.062495 0.000000
5.062501 0.062497 0.000000
5.125001 0.062498 0.000000
5.187501 0.062499 0.000000
5.250000 0.062499 0.000000
5.312500 0.062500 0.000000
5.375000 0.062500 0.000000
5.437500 0.062500 0.000000
5.500000 0.062500 0.000000
5.562500 0.062500 0.000000
5.625000 0.062500 0.000000
5.687500 0.062500 0.000000
5.750000 0.062500 0.000000
5.812500 0.062500 0.000000
5.875000 0.062500 0.000000
5.937500 0.062500 0.000000
6.000000 0.062500 0.000000
6.062500 0.062500 0.000000
6.125000 0.062500 0.000000
6.187500 0.062500 0.000000
6.250000 0.062500 0.000000
6.312500 0.062500 0.000000
6.375000 0.062500 0.000000
6.437500 0.062500 0.000000
6.500000 0.062500 0.000000
6.562500 0.062500 0.000000
6.625000 0.062500 0.000000
6.687500 0.062500 0.000000
6.750000 0.062500 0.000000
6.812500 0.062500 0.000000
6.875000 0.062500 0.000000
6.937500 0.062500 0.000000
7.000000 0.062500 0.000000
0.000000 0.159363 0.000000
0.174885 0.159638 0.000000
0.349197 0.160041 0.000000
0.521396 0.162398 0.000000
0.690764 0.164312 0.000000
0.856341 0.167757 0.000000
1.017923 0.170372 0.000000
1.175091 0.174073 0.000000
1.327970 0.176448 0.000000
1.476668 0.179449 0.000000
1.621598 0.180427 0.000000
1.763437 0.181331 0.000000
1.902953 0.179264 0.000000
2.041792 0.175858 0.000000
2.181800 0.167647 0.000000
2.325811 0.157573 0.000000
2.482088 0.134483 0.000000
2.529726 0.129918 0.000000
2.574488 0.126852 0.000000
2.616158 0.124767 0.000000
2.656530 0.122897 0.000000
2.695314 0.121588 0.000000
2.733304 0.120102 0.000000
2.770197 0.119024 0.000000
2.806523 0.117629 0.000000
2.842007 0.116599 0.000000
2.877105 0.115209 0.000000
2.911506 0.114211 0.000000
2.945595 0.112820 0.000000
2.979032 0.111825 0.000000
3.012172 0.110390 0.000000
3.044735 0.109255 0.000000
3.077088 0.107628 0.000000
3.109035 0.106237 0.000000
3.140945 0.104460 0.000000
3.172624 0.103182 0.000000
3.204365 0.101871 0.000000
3.236126 0.100635 0.000000
3.268085 0.099360 0.000000
3.299438 0.098899 0.000000
3.330234 0.098311 0.000000
3.360446 0.097744 0.000000
3.390362 0.096960 0.000000
3.419827 0.096135 0.000000
3.449233 0.095151 0.000000
3.478489 0.094161 0.000000
3.507543 0.093207 0.000000
3.536485 0.092772 0.000000
3.565497 0.092246 0.000000
3.594431 0.091581 0.000000
3.622889 0.091322 0.000000
3.651264 0.091373 0.000000
3.679257 0.091695 0.000000
3.706797 0.092255 0.000000
3.734031 0.093369 0.000000
3.760543 0.094714 0.000000
3.786993 0.096578 0.000000
3.813499 0.098426 0.000000
3.840478 0.100792 0.000000
3.868144 0.102989 0.000000
3.896965 0.105704 0.000000
3.927660 0.108048 0.000000
3.960687 0.110880 0.000000
3.997527 0.113092 0.000000
4.038271 0.115784 0.000000
4.084755 0.117617 0.000000
4.135980 0.119934 0.000000
4.192502 0.121210 0.000000
4.251918 0.122791 0.000000
4.313382 0.123349 0.000000
4.375411 0.124072 0.000000
4.437765 0.124246 0.000000
4.500159 0.124572 0.000000
4.562615 0.124644 0.000000
4.625070 0.124805 0.000000
4.687552 0.124837 0.000000
4.750030 0.124914 0.000000
4.812523 0.124928 0.000000
4.875012 0.124964 0.000000
4.937510 0.124969 0.000000
5.000005 0.124986 0.000000
5.062504 0.124988 0.000000
5.125002 0.124995 0.000000
5.187502 0.124995 0.000000
5.250000 0.124998 0.000000
5.312501 0.124998 0.000000
5.375000 0.124999 0.000000
5.437500 0.124999 0.000000
5.500000 0.125000 0.000000
5.562500 0.125000 0.000000
5.625000 0.125000 0.000000
5.687500 0.125000 0.000000
5.750000 0.125000 0.000000
5.812500 0.125000 0.000000
5.875000 0.125000 0.000000
5.937500 0.125000 0.000000
6.000000 0.125000 0.000000
6.062500 0.125000 0.000000
6.125000 0.125000 0.000000
6.187500 0.125000 0.000000
6.250000 0.125000 0.000000
6.312500 0.125000 0.000000
6.375000 0.125000 0.000000
6.437500 0.125000 0.000000
6.500000 0.125000 0.000000
6.562500 0.125000 0.000000
6.625000 0.125000 0.000000
6.687500 0.125000 0.000000
6.750000 0.125000 0.000000
6.812500 0.125000 0.000000
6.875000 0.125000 0.000000
6.937500 0.125000 0.000000
7.000000 0.125000 0.000000
0.000000 0.239130 0.000000
0.175665 0.239519 0.000000
0.350623 0.240151 0.000000
0.523572 0.243665 0.000000
0.693329 0.246572 0.000000
0.859480 0.251743 0.000000
1.021145 0.255740 0.000000
1.178600 0.261342 0.000000
1.331216 0.265058 0.000000
1.479836 0.269657 0.000000
1.624065 0.271357 0.000000
1.765346 0.272859 0.000000
1.903672 0.270080 0.000000
2.041258 0.265158 0.000000
2.179165 0.253250 0.000000
2.321095 0.238141 0.000000
2.474376 0.203500 0.000000
2.521076 0.196918 0.000000
2.564948 0.192327 0.000000
2.606193 0.189071 0.000000
2.646091 0.186309 0.000000
2.684748 0.184090 0.000000
2.722465 0.181915 0.000000
2.759333 0.180063 0.000000
2.795441 0.178087 0.000000
2.830875 0.176315 0.000000
2.865669 0.174364 0.000000
2.899921 0.172628 0.000000
2.933691 0.170686 0.000000
2.967078 0.168935 0.000000
3.000155 0.166953 0.000000
3.033010 0.164991 0.000000
3.065657 0.162805 0.000000
3.098168 0.160458 0.000000
3.130482 0.158036 0.000000
3.162696 0.155554 0.000000
3.194808 0.153369 0.000000
3.226922 0.150836 0.000000
3.258820 0.148789 0.000000
3.290423 0.147764 0.000000
3.321839 0.146969 0.000000
3.353147 0.145909 0.000000
3.384364 0.144818 0.000000
3.415501 0.143627 0.000000
3.446355 0.142012 0.000000
3.476831 0.140830 0.000000
3.506949 0.139658 0.000000
3.536796 0.138707 0.000000
3.566457 0.137700 0.000000
3.595898 0.136875 0.000000
3.624912 0.136790 0.000000
3.653569 0.136888 0.000000
3.681887 0.137604 0.000000
3.709566 0.138518 0.000000
3.736968 0.140274 0.000000
3.763569 0.142337 0.000000
3.790020 0.145089 0.000000
3.816392 0.147739 0.000000
3.843404 0.151089 0.000000
3.870891 0.154161 0.000000
3.899847 0.157897 0.000000
3.930352 0.161134 0.000000
3.963679 0.164977 0.000000
4.000305 0.168072 0.000000
4.041419 0.171767 0.000000
4.087493 0.174487 0.000000
4.138740 0.177818 0.000000
4.194499 0.179948 0.000000
4.253484 0.182451 0.000000
4.314353 0.183647 0.000000
4.376126 0.185015 0.000000
4.438238 0.185544 0.000000
4.500525 0.186252 0.000000
4.562859 0.186518 0.000000
4.625259 0.186893 0.000000
4.687673 0.187028 0.000000
4.750123 0.187218 0.000000
4.812580 0.187283 0.000000
4.875056 0.187374 0.000000
4.937535 0.187405 0.000000
5.000025 0.187446 0.000000
5.062515 0.187460 0.000000
5.125010 0.187478 0.000000
5.187506 0.187484 0.000000
5.250004 0.187492 0.000000
5.312502 0.187494 0.000000
5.375002 0.187497 0.000000
5.437501 0.187498 0.000000
5.500001 0.187499 0.000000
5.562500 0.187499 0.000000
5.625000 0.187500 0.000000
5.687500 0.187500 0.000000
5.750000 0.187500 0.000000
5.812500 0.187500 0.000000
5.875000 0.187500 0.000000
5.937500 0.187500 0.000000
6.000000 0.187500 0.000000
6.062500 0.187500 0.000000
6.125000 0.187500 0.000000
6.187500 0.187500 0.000000
6.250000 0.187500 0.000000
6.312500 0.187500 0.000000
6.375000 0.187500 0.000000
6.437500 0.187500 0.000000
6.500000 0.187500 0.000000
6.562500 0.187500 0.000000
6.625000 0.187500 0.000000
6.687500 0.187500 0.000000
6.750000 0.187500 0.000000
6.812500 0.187500 0.000000
6.875000 0.187500 0.000000
6.937500 0.187500 0.000000
7.000000 0.187500 0.000000
0.000000 0.318787 0.000000
0.175568 0.319300 0.000000
0.350549 0.320139 0.000000
0.523406 0.324814 0.000000
0.693385 0.328703 0.000000
0.859489 0.335645 0.000000
1.021408 0.341073 0.000000
1.178679 0.348702 0.000000
1.331299 0.353885 0.000000
1.479322 0.360338 0.000000
1.623011 0.362996 0.000000
1.763056 0.365475 0.000000
1.900287 0.362235 0.000000
2.035984 0.356558 0.000000
2.172201 0.341127 0.000000
2.311738 0.321751 0.000000
2.465701 0.274382 0.000000
2.512606 0.265521 0.000000
2.556759 0.259186 0.000000
2.597914 0.254762 0.000000
2.637967 0.250873 0.000000
2.676521 0.247859 0.000000
2.714376 0.244813 0.000000
2.751178 0.242317 0.000000
2.787462 0.239594 0.000000
2.822850 0.237321 0.000000
2.857773 0.234719 0.000000
2.891996 0.232362 0.000000
2.925956 0.229629 0.000000
2.959519 0.226960 0.000000
2.993080 0.223938 0.000000
3.026462 0.220905 0.000000
3.059924 0.217623 0.000000
3.093181 0.214332 0.000000
3.126325 0.211044 0.000000
3.159092 0.207698 0.000000
3.191640 0.204598 0.000000
3.223728 0.201528 0.000000
3.255403 0.199051 0.000000
3.286779 0.197214 0.000000
3.318439 0.195425 0.000000
3.350097 0.193667 0.000000
3.381834 0.191592 0.000000
3.413324 0.189847 0.000000
3.444820 0.188106 0.000000
3.475985 0.186708 0.000000
3.506993 0.185324 0.000000
3.537527 0.184272 0.000000
3.567725 0.182959 0.000000
3.597111 0.182614 0.000000
3.625936 0.182552 0.000000
3.654242 0.182943 0.000000
3.682297 0.183901 0.000000
3.709852 0.185136 0.000000
3.736741 0.187392 0.000000
3.763179 0.189854 0.000000
3.789520 0.193272 0.000000
3.815912 0.196520 0.000000
3.842813 0.200691 0.000000
3.870422 0.204355 0.000000
3.899297 0.208949 0.000000
3.930153 0.212719 0.000000
3.963534 0.217484 0.000000
4.000832 0.221067 0.000000
4.042150 0.225830 0.000000
4.088989 0.229073 0.000000
4.140303 0.233691 0.000000
4.196325 0.236388 0.000000
4.254983 0.240267 0.000000
4.315678 0.241955 0.000000
4.377107 0.244527 0.000000
4.439041 0.245415 0.000000
4.501092 0.247012 0.000000
4.563312 0.247504 0.000000
4.625560 0.248458 0.000000
4.687911 0.248719 0.000000
4.750270 0.249251 0.000000
4.812697 0.249379 0.000000
4.875123 0.249655 0.000000
4.937590 0.249714 0.000000
5.000053 0.249849 0.000000
5.062539 0.249874 0.000000
5.125021 0.249937 0.000000
5.187516 0.249947 0.000000
5.250008 0.249975 0.000000
5.312507 0.249979 0.000000
5.375003 0.249991 0.000000
5.437502 0.249992 0.000000
5.500001 0.249997 0.000000
5.562501 0.249997 0.000000
5.625000 0.249999 0.000000
5.687500 0.249999 0.000000
5.750000 0.250000 0.000000
5.812500 0.250000 0.000000
5.875000 0.250000 0.000000
5.937500 0.250000 0.000000
6.000000 0.250000 0.000000
6.062500 0.250000 0.000000
6.125000 0.250000 0.000000
6.187500 0.250000 0.000000
6.250000 0.250000 0.000000
6.312500 0.250000 0.000000
6.375000 0.250000 0.000000
6.437500 0.250000 0.000000
6.500000 0.250000 0.000000
6.562500 0.250000 0.000000
6.625000 0.250000 0.000000
6.687500 0.250000 0.000000
6.750000 0.250000 0.000000
6.812500 0.250000 0.000000
6.875000 0.250000 0.000000
6.937500 0.250000 0.000000
7.000000 0.250000 0.000000
0.000000 0.398255 0.000000
0.176838 0.398882 0.000000
0.352915 0.400011 0.000000
0.526979 0.405886 0.000000
0.697695 0.410884 0.000000
0.864714 0.419680 0.000000
1.026903 0.426708 0.000000
1.184616 0.436479 0.000000
1.336941 0.443361 0.000000
1.484805 0.451800 0.000000
1.627560 0.455731 0.000000
1.766676 0.459304 0.000000
1.902033 0.456007 0.000000
2.035606 0.449702 0.000000
2.168757 0.431261 0.000000
2.305323 0.407264 0.000000
2.456563 0.346496 0.000000
2.502989 0.335633 0.000000
2.546514 0.327726 0.000000
2.587375 0.322025 0.000000
2.626927 0.317153 0.000000
2.665261 0.313186 0.000000
2.702714 0.309416 0.000000
2.739380 0.306079 0.000000
2.775388 0.302692 0.000000
2.810885 0.299574 0.000000
2.845992 0.296257 0.000000
2.880850 0.292862 0.000000
2.915454 0.289257 0.000000
2.949901 0.285365 0.000000
2.984079 0.281377 0.000000
3.018090 0.277100 0.000000
3.051813 0.272951 0.000000
3.085303 0.268669 0.000000
3.118437 0.264815 0.000000
3.151332 0.260690 0.000000
3.183892 0.257144 0.000000
3.216233 0.253428 0.000000
3.248315 0.250500 0.000000
3.280413 0.247323 0.000000
3.312536 0.244501 0.000000
3.344699 0.241773 0.000000
3.376786 0.239189 0.000000
3.408722 0.236909 0.000000
3.440487 0.234515 0.000000
3.472042 0.232638 0.000000
3.503353 0.230821 0.000000
3.534385 0.229680 0.000000
3.564976 0.228487 0.000000
3.594997 0.228472 0.000000
3.624670 0.228498 0.000000
3.653829 0.229341 0.000000
3.682421 0.230336 0.000000
3.710381 0.232374 0.000000
3.737923 0.234864 0.000000
3.764931 0.237862 0.000000
3.791454 0.241887 0.000000
3.817723 0.245628 0.000000
3.844643 0.250258 0.000000
3.872125 0.254215 0.000000
3.901249 0.259126 0.000000
3.932103 0.263123 0.000000
3.966080 0.268177 0.000000
4.003510 0.272069 0.000000
4.045635 0.277282 0.000000
4.092492 0.281072 0.000000
4.144265 0.286442 0.000000
4.199850 0.289964 0.000000
4.258334 0.294890 0.000000
4.318403 0.297554 0.000000
4.379490 0.301281 0.000000
4.440925 0.303056 0.000000
4.502687 0.305676 0.000000
4.564532 0.306857 0.000000
4.626561 0.308604 0.000000
4.688642 0.309347 0.000000
4.750853 0.310424 0.000000
4.813101 0.310854 0.000000
4.875438 0.311465 0.000000
4.937797 0.311694 0.000000
5.000212 0.312014 0.000000
5.062638 0.312127 0.000000
5.125097 0.312283 0.000000
5.187561 0.312336 0.000000
5.250043 0.312408 0.000000
5.312526 0.312432 0.000000
5.375018 0.312463 0.000000
5.437510 0.312473 0.000000
5.500007 0.312486 0.000000
5.562504 0.312490 0.000000
5.625003 0.312495 0.000000
5.687501 0.312497 0.000000
5.750001 0.312498 0.000000
5.812500 0.312499 0.000000
5.875000 0.312499 0.000000
5.937500 0.312500 0.000000
6.000000 0.312500 0.000000
6.062500 0.312500 0.000000
6.125000 0.312500 0.000000
6.187500 0.312500 0.000000
6.250000 0.312500 0.000000
6.312500 0.312500 0.000000
6.375000 0.312500 0.000000
6.437500 0.312500 0.000000
6.500000 0.312500 0.000000
6.562500 0.312500 0.000000
6.625000 0.312500 0.000000
6.687500 0.312500 0.000000
6.750000 0.312500 0.000000
6.812500 0.312500 0.000000
6.875000 0.312500 0.000000
6.937500 0.312500 0.000000
7.000000 0.312500 0.000000
0.000000 0.477431 0.000000
0.177167 0.478205 0.000000
0.353692 0.479575 0.000000
0.528066 0.486678 0.000000
0.699383 0.492765 0.000000
0.866691 0.503502 0.000000
1.029413 0.512202 0.000000
1.187166 0.524327 0.000000
1.339609 0.533101 0.000000
1.486952 0.543898 0.000000
1.629114 0.549427 0.000000
1.766832 0.554768 0.000000
1.900593 0.551879 0.000000
2.031687 0.545984 0.000000
2.162476 0.524616 0.000000
2.296048 0.496796 0.000000
2.447856 0.419929 0.000000
2.494617 0.406975 0.000000
2.538543 0.397415 0.000000
2.579289 0.390721 0.000000
2.618925 0.384741 0.000000
2.657037 0.380044 0.000000
2.694516 0.375355 0.000000
2.730972 0.371359 0.000000
2.767036 0.367014 0.000000
2.802595 0.362774 0.000000
2.838230 0.358058 0.000000
2.873643 0.353416 0.000000
2.909168 0.348391 0.000000
2.944332 0.343563 0.000000
2.979299 0.338531 0.000000
3.013739 0.333537 0.000000
3.047864 0.328587 0.000000
3.081384 0.323819 0.000000
3.114563 0.319294 0.000000
3.147340 0.314562 0.000000
3.180073 0.310149 0.000000
3.212589 0.305745 0.000000
3.245266 0.301598 0.000000
3.277820 0.297633 0.000000
3.310394 0.293749 0.000000
3.342699 0.290395 0.000000
3.375002 0.286914 0.000000
3.407037 0.284084 0.000000
3.439008 0.281116 0.000000
3.470496 0.279079 0.000000
3.501825 0.276917 0.000000
3.532570 0.275837 0.000000
3.563035 0.274777 0.000000
3.592915 0.274918 0.000000
3.622451 0.274639 0.000000
3.651262 0.276057 0.000000
3.679675 0.277308 0.000000
3.707434 0.279843 0.000000
3.734852 0.282334 0.000000
3.761667 0.285583 0.000000
3.788178 0.289693 0.000000
3.814625 0.293570 0.000000
3.841609 0.298451 0.000000
3.869495 0.302286 0.000000
3.898866 0.307365 0.000000