# vtk DataFile Version 2.0
Mesh for Fierro
ASCII
DATASET UNSTRUCTURED_GRID

POINTS 525 float
0 0 0 
0.025 0 0 
0.05 0 0 
0.075 0 0 
0.1 0 0 
0 0.025 0 
0.025 0.025 0 
0.05 0.025 0 
0.075 0.025 0 
0.1 0.025 0 
0 0.05 0 
0.025 0.05 0 
0.05 0.05 0 
0.075 0.05 0 
0.1 0.05 0 
0 0.075 0 
0.025 0.075 0 
0.05 0.075 0 
0.075 0.075 0 
0.1 0.075 0 
0 0.1 0 
0.025 0.1 0 
0.05 0.1 0 
0.075 0.1 0 
0.1 0.1 0 
0 0 0.05 
0.025 0 0.05 
0.05 0 0.05 
0.075 0 0.05 
0.1 0 0.05 
0 0.025 0.05 
0.025 0.025 0.05 
0.05 0.025 0.05 
0.075 0.025 0.05 
0.1 0.025 0.05 
0 0.05 0.05 
0.025 0.05 0.05 
0.05 0.05 0.05 
0.075 0.05 0.05 
0.1 0.05 0.05 
0 0.075 0.05 
0.025 0.075 0.05 
0.05 0.075 0.05 
0.075 0.075 0.05 
0.1 0.075 0.05 
0 0.1 0.05 
0.025 0.1 0.05 
0.05 0.1 0.05 
0.075 0.1 0.05 
0.1 0.1 0.05 
0 0 0.1 
0.025 0 0.1 
0.05 0 0.1 
0.075 0 0.1 
0.1 0 0.1 
0 0.025 0.1 
0.025 0.025 0.1 
0.05 0.025 0.1 
0.075 0.025 0.1 
0.1 0.025 0.1 
0 0.05 0.1 
0.025 0.05 0.1 
0.05 0.05 0.1 
0.075 0.05 0.1 
0.1 0.05 0.1 
0 0.075 0.1 
0.025 0.075 0.1 
0.05 0.075 0.1 
0.075 0.075 0.1 
0.1 0.075 0.1 
0 0.1 0.1 
0.025 0.1 0.1 
0.05 0.1 0.1 
0.075 0.1 0.1 
0.1 0.1 0.1 
0 0 0.15 
0.025 0 0.15 
0.05 0 0.15 
0.075 0 0.15 
0.1 0 0.15 
0 0.025 0.15 
0.025 0.025 0.15 
0.05 0.025 0.15 
0.075 0.025 0.15 
0.1 0.025 0.15 
0 0.05 0.15 
0.025 0.05 0.15 
0.05 0.05 0.15 
0.075 0.05 0.15 
0.1 0.05 0.15 
0 0.075 0.15 
0.025 0.075 0.15 
0.05 0.075 0.15 
0.075 0.075 0.15 
0.1 0.075 0.15 
0 0.1 0.15 
0.025 0.1 0.15 
0.05 0.1 0.15 
0.075 0.1 0.15 
0.1 0.1 0.15 
0 0 0.2 
0.025 0 0.2 
0.05 0 0.2 
0.075 0 0.2 
0.1 0 0.2 
0 0.025 0.2 
0.025 0.025 0.2 
0.05 0.025 0.2 
0.075 0.025 0.2 
0.1 0.025 0.2 
0 0.05 0.2 
0.025 0.05 0.2 
0.05 0.05 0.2 
0.075 0.05 0.2 
0.1 0.05 0.2 
0 0.075 0.2 
0.025 0.075 0.2 
0.05 0.075 0.2 
0.075 0.075 0.2 
0.1 0.075 0.2 
0 0.1 0.2 
0.025 0.1 0.2 
0.05 0.1 0.2 
0.075 0.1 0.2 
0.1 0.1 0.2 
0 0 0.25 
0.025 0 0.25 
0.05 0 0.25 
0.075 0 0.25 
0.1 0 0.25 
0 0.025 0.25 
0.025 0.025 0.25 
0.05 0.025 0.25 
0.075 0.025 0.25 
0.1 0.025 0.25 
0 0.05 0.25 
0.025 0.05 0.25 
0.05 0.05 0.25 
0.075 0.05 0.25 
0.1 0.05 0.25 
0 0.075 0.25 
0.025 0.075 0.25 
0.05 0.075 0.25 
0.075 0.075 0.25 
0.1 0.075 0.25 
0 0.1 0.25 
0.025 0.1 0.25 
0.05 0.1 0.25 
0.075 0.1 0.25 
0.1 0.1 0.25 
0 0 0.3 
0.025 0 0.3 
0.05 0 0.3 
0.075 0 0.3 
0.1 0 0.3 
0 0.025 0.3 
0.025 0.025 0.3 
0.05 0.025 0.3 
0.075 0.025 0.3 
0.1 0.025 0.3 
0 0.05 0.3 
0.025 0.05 0.3 
0.05 0.05 0.3 
0.075 0.05 0.3 
0.1 0.05 0.3 
0 0.075 0.3 
0.025 0.075 0.3 
0.05 0.075 0.3 
0.075 0.075 0.3 
0.1 0.075 0.3 
0 0.1 0.3 
0.025 0.1 0.3 
0.05 0.1 0.3 
0.075 0.1 0.3 
0.1 0.1 0.3 
0 0 0.35 
0.025 0 0.35 
0.05 0 0.35 
0.075 0 0.35 
0.1 0 0.35 
0 0.025 0.35 
0.025 0.025 0.35 
0.05 0.025 0.35 
0.075 0.025 0.35 
0.1 0.025 0.35 
0 0.05 0.35 
0.025 0.05 0.35 
0.05 0.05 0.35 
0.075 0.05 0.35 
0.1 0.05 0.35 
0 0.075 0.35 
0.025 0.075 0.35 
0.05 0.075 0.35 
0.075 0.075 0.35 
0.1 0.075 0.35 
0 0.1 0.35 
0.025 0.1 0.35 
0.05 0.1 0.35 
0.075 0.1 0.35 
0.1 0.1 0.35 
0 0 0.4 
0.025 0 0.4 
0.05 0 0.4 
0.075 0 0.4 
0.1 0 0.4 
0 0.025 0.4 
0.025 0.025 0.4 
0.05 0.025 0.4 
0.075 0.025 0.4 
0.1 0.025 0.4 
0 0.05 0.4 
0.025 0.05 0.4 
0.05 0.05 0.4 
0.075 0.05 0.4 
0.1 0.05 0.4 
0 0.075 0.4 
0.025 0.075 0.4 
0.05 0.075 0.4 
0.075 0.075 0.4 
0.1 0.075 0.4 
0 0.1 0.4 
0.025 0.1 0.4 
0.05 0.1 0.4 
0.075 0.1 0.4 
0.1 0.1 0.4 
0 0 0.45 
0.025 0 0.45 
0.05 0 0.45 
0.075 0 0.45 
0.1 0 0.45 
0 0.025 0.45 
0.025 0.025 0.45 
0.05 0.025 0.45 
0.075 0.025 0.45 
0.1 0.025 0.45 
0 0.05 0.45 
0.025 0.05 0.45 
0.05 0.05 0.45 
0.075 0.05 0.45 
0.1 0.05 0.45 
0 0.075 0.45 
0.025 0.075 0.45 
0.05 0.075 0.45 
0.075 0.075 0.45 
0.1 0.075 0.45 
0 0.1 0.45 
0.025 0.1 0.45 
0.05 0.1 0.45 
0.075 0.1 0.45 
0.1 0.1 0.45 
0 0 0.5 
0.025 0 0.5 
0.05 0 0.5 
0.075 0 0.5 
0.1 0 0.5 
0 0.025 0.5 
0.025 0.025 0.5 
0.05 0.025 0.5 
0.075 0.025 0.5 
0.1 0.025 0.5 
0 0.05 0.5 
0.025 0.05 0.5 
0.05 0.05 0.5 
0.075 0.05 0.5 
0.1 0.05 0.5 
0 0.075 0.5 
0.025 0.075 0.5 
0.05 0.075 0.5 
0.075 0.075 0.5 
0.1 0.075 0.5 
0 0.1 0.5 
0.025 0.1 0.5 
0.05 0.1 0.5 
0.075 0.1 0.5 
0.1 0.1 0.5 
0 0 0.55 
0.025 0 0.55 
0.05 0 0.55 
0.075 0 0.55 
0.1 0 0.55 
0 0.025 0.55 
0.025 0.025 0.55 
0.05 0.025 0.55 
0.075 0.025 0.55 
0.1 0.025 0.55 
0 0.05 0.55 
0.025 0.05 0.55 
0.05 0.05 0.55 
0.075 0.05 0.55 
0.1 0.05 0.55 
0 0.075 0.55 
0.025 0.075 0.55 
0.05 0.075 0.55 
0.075 0.075 0.55 
0.1 0.075 0.55 
0 0.1 0.55 
0.025 0.1 0.55 
0.05 0.1 0.55 
0.075 0.1 0.55 
0.1 0.1 0.55 
0 0 0.6 
0.025 0 0.6 
0.05 0 0.6 
0.075 0 0.6 
0.1 0 0.6 
0 0.025 0.6 
0.025 0.025 0.6 
0.05 0.025 0.6 
0.075 0.025 0.6 
0.1 0.025 0.6 
0 0.05 0.6 
0.025 0.05 0.6 
0.05 0.05 0.6 
0.075 0.05 0.6 
0.1 0.05 0.6 
0 0.075 0.6 
0.025 0.075 0.6 
0.05 0.075 0.6 
0.075 0.075 0.6 
0.1 0.075 0.6 
0 0.1 0.6 
0.025 0.1 0.6 
0.05 0.1 0.6 
0.075 0.1 0.6 
0.1 0.1 0.6 
0 0 0.65 
0.025 0 0.65 
0.05 0 0.65 
0.075 0 0.65 
0.1 0 0.65 
0 0.025 0.65 
0.025 0.025 0.65 
0.05 0.025 0.65 
0.075 0.025 0.65 
0.1 0.025 0.65 
0 0.05 0.65 
0.025 0.05 0.65 
0.05 0.05 0.65 
0.075 0.05 0.65 
0.1 0.05 0.65 
0 0.075 0.65 
0.025 0.075 0.65 
0.05 0.075 0.65 
0.075 0.075 0.65 
0.1 0.075 0.65 
0 0.1 0.65 
0.025 0.1 0.65 
0.05 0.1 0.65 
0.075 0.1 0.65 
0.1 0.1 0.65 
0 0 0.7 
0.025 0 0.7 
0.05 0 0.7 
0.075 0 0.7 
0.1 0 0.7 
0 0.025 0.7 
0.025 0.025 0.7 
0.05 0.025 0.7 
0.075 0.025 0.7 
0.1 0.025 0.7 
0 0.05 0.7 
0.025 0.05 0.7 
0.05 0.05 0.7 
0.075 0.05 0.7 
0.1 0.05 0.7 
0 0.075 0.7 
0.025 0.075 0.7 
0.05 0.075 0.7 
0.075 0.075 0.7 
0.1 0.075 0.7 
0 0.1 0.7 
0.025 0.1 0.7 
0.05 0.1 0.7 
0.075 0.1 0.7 
0.1 0.1 0.7 
0 0 0.75 
0.025 0 0.75 
0.05 0 0.75 
0.075 0 0.75 
0.1 0 0.75 
0 0.025 0.75 
0.025 0.025 0.75 
0.05 0.025 0.75 
0.075 0.025 0.75 
0.1 0.025 0.75 
0 0.05 0.75 
0.025 0.05 0.75 
0.05 0.05 0.75 
0.075 0.05 0.75 
0.1 0.05 0.75 
0 0.075 0.75 
0.025 0.075 0.75 
0.05 0.075 0.75 
0.075 0.075 0.75 
0.1 0.075 0.75 
0 0.1 0.75 
0.025 0.1 0.75 
0.05 0.1 0.75 
0.075 0.1 0.75 
0.1 0.1 0.75 
0 0 0.8 
0.025 0 0.8 
0.05 0 0.8 
0.075 0 0.8 
0.1 0 0.8 
0 0.025 0.8 
0.025 0.025 0.8 
0.05 0.025 0.8 
0.075 0.025 0.8 
0.1 0.025 0.8 
0 0.05 0.8 
0.025 0.05 0.8 
0.05 0.05 0.8 
0.075 0.05 0.8 
0.1 0.05 0.8 
0 0.075 0.8 
0.025 0.075 0.8 
0.05 0.075 0.8 
0.075 0.075 0.8 
0.1 0.075 0.8 
0 0.1 0.8 
0.025 0.1 0.8 
0.05 0.1 0.8 
0.075 0.1 0.8 
0.1 0.1 0.8 
0 0 0.85 
0.025 0 0.85 
0.05 0 0.85 
0.075 0 0.85 
0.1 0 0.85 
0 0.025 0.85 
0.025 0.025 0.85 
0.05 0.025 0.85 
0.075 0.025 0.85 
0.1 0.025 0.85 
0 0.05 0.85 
0.025 0.05 0.85 
0.05 0.05 0.85 
0.075 0.05 0.85 
0.1 0.05 0.85 
0 0.075 0.85 
0.025 0.075 0.85 
0.05 0.075 0.85 
0.075 0.075 0.85 
0.1 0.075 0.85 
0 0.1 0.85 
0.025 0.1 0.85 
0.05 0.1 0.85 
0.075 0.1 0.85 
0.1 0.1 0.85 
0 0 0.9 
0.025 0 0.9 
0.05 0 0.9 
0.075 0 0.9 
0.1 0 0.9 
0 0.025 0.9 
0.025 0.025 0.9 
0.05 0.025 0.9 
0.075 0.025 0.9 
0.1 0.025 0.9 
0 0.05 0.9 
0.025 0.05 0.9 
0.05 0.05 0.9 
0.075 0.05 0.9 
0.1 0.05 0.9 
0 0.075 0.9 
0.025 0.075 0.9 
0.05 0.075 0.9 
0.075 0.075 0.9 
0.1 0.075 0.9 
0 0.1 0.9 
0.025 0.1 0.9 
0.05 0.1 0.9 
0.075 0.1 0.9 
0.1 0.1 0.9 
0 0 0.95 
0.025 0 0.95 
0.05 0 0.95 
0.075 0 0.95 
0.1 0 0.95 
0 0.025 0.95 
0.025 0.025 0.95 
0.05 0.025 0.95 
0.075 0.025 0.95 
0.1 0.025 0.95 
0 0.05 0.95 
0.025 0.05 0.95 
0.05 0.05 0.95 
0.075 0.05 0.95 
0.1 0.05 0.95 
0 0.075 0.95 
0.025 0.075 0.95 
0.05 0.075 0.95 
0.075 0.075 0.95 
0.1 0.075 0.95 
0 0.1 0.95 
0.025 0.1 0.95 
0.05 0.1 0.95 
0.075 0.1 0.95 
0.1 0.1 0.95 
0 0 1 
0.025 0 1 
0.05 0 1 
0.075 0 1 
0.1 0 1 
0 0.025 1 
0.025 0.025 1 
0.05 0.025 1 
0.075 0.025 1 
0.1 0.025 1 
0 0.05 1 
0.025 0.05 1 
0.05 0.05 1 
0.075 0.05 1 
0.1 0.05 1 
0 0.075 1 
0.025 0.075 1 
0.05 0.075 1 
0.075 0.075 1 
0.1 0.075 1 
0 0.1 1 
0.025 0.1 1 
0.05 0.1 1 
0.075 0.1 1 
0.1 0.1 1 

CELLS 40 1120
27 0 2 12 10 50 52 62 60 1 7 11 5 51 57 61 55 25 27 35 37 30 32 26 36 6 56 31 
27 2 4 14 12 52 54 64 62 3 9 13 7 53 59 63 57 27 29 37 39 32 34 28 38 8 58 33 
27 10 12 22 20 60 62 72 70 11 17 21 15 61 67 71 65 35 37 45 47 40 42 36 46 16 66 41 
27 12 14 24 22 62 64 74 72 13 19 23 17 63 69 73 67 37 39 47 49 42 44 38 48 18 68 43 
27 50 52 62 60 100 102 112 110 51 57 61 55 101 107 111 105 75 77 85 87 80 82 76 86 56 106 81 
27 52 54 64 62 102 104 114 112 53 59 63 57 103 109 113 107 77 79 87 89 82 84 78 88 58 108 83 
27 60 62 72 70 110 112 122 120 61 67 71 65 111 117 121 115 85 87 95 97 90 92 86 96 66 116 91 
27 62 64 74 72 112 114 124 122 63 69 73 67 113 119 123 117 87 89 97 99 92 94 88 98 68 118 93 
27 100 102 112 110 150 152 162 160 101 107 111 105 151 157 161 155 125 127 135 137 130 132 126 136 106 156 131 
27 102 104 114 112 152 154 164 162 103 109 113 107 153 159 163 157 127 129 137 139 132 134 128 138 108 158 133 
27 110 112 122 120 160 162 172 170 111 117 121 115 161 167 171 165 135 137 145 147 140 142 136 146 116 166 141 
27 112 114 124 122 162 164 174 172 113 119 123 117 163 169 173 167 137 139 147 149 142 144 138 148 118 168 143 
27 150 152 162 160 200 202 212 210 151 157 161 155 201 207 211 205 175 177 185 187 180 182 176 186 156 206 181 
27 152 154 164 162 202 204 214 212 153 159 163 157 203 209 213 207 177 179 187 189 182 184 178 188 158 208 183 
27 160 162 172 170 210 212 222 220 161 167 171 165 211 217 221 215 185 187 195 197 190 192 186 196 166 216 191 
27 162 164 174 172 212 214 224 222 163 169 173 167 213 219 223 217 187 189 197 199 192 194 188 198 168 218 193 
27 200 202 212 210 250 252 262 260 201 207 211 205 251 257 261 255 225 227 235 237 230 232 226 236 206 256 231 
27 202 204 214 212 252 254 264 262 203 209 213 207 253 259 263 257 227 229 237 239 232 234 228 238 208 258 233 
27 210 212 222 220 260 262 272 270 211 217 221 215 261 267 271 265 235 237 245 247 240 242 236 246 216 266 241 
27 212 214 224 222 262 264 274 272 213 219 223 217 263 269 273 267 237 239 247 249 242 244 238 248 218 268 243 
27 250 252 262 260 300 302 312 310 251 257 261 255 301 307 311 305 275 277 285 287 280 282 276 286 256 306 281 
27 252 254 264 262 302 304 314 312 253 259 263 257 303 309 313 307 277 279 287 289 282 284 278 288 258 308 283 
27 260 262 272 270 310 312 322 320 261 267 271 265 311 317 321 315 285 287 295 297 290 292 286 296 266 316 291 
27 262 264 274 272 312 314 324 322 263 269 273 267 313 319 323 317 287 289 297 299 292 294 288 298 268 318 293 
27 300 302 312 310 350 352 362 360 301 307 311 305 351 357 361 355 325 327 335 337 330 332 326 336 306 356 331 
27 302 304 314 312 352 354 364 362 303 309 313 307 353 359 363 357 327 329 337 339 332 334 328 338 308 358 333 
27 310 312 322 320 360 362 372 370 311 317 321 315 361 367 371 365 335 337 345 347 340 342 336 346 316 366 341 
27 312 314 324 322 362 364 374 372 313 319 323 317 363 369 373 367 337 339 347 349 342 344 338 348 318 368 343 
27 350 352 362 360 400 402 412 410 351 357 361 355 401 407 411 405 375 377 385 387 380 382 376 386 356 406 381 
27 352 354 364 362 402 404 414 412 353 359 363 357 403 409 413 407 377 379 387 389 382 384 378 388 358 408 383 
27 360 362 372 370 410 412 422 420 361 367 371 365 411 417 421 415 385 387 395 397 390 392 386 396 366 416 391 
27 362 364 374 372 412 414 424 422 363 369 373 367 413 419 423 417 387 389 397 399 392 394 388 398 368 418 393 
27 400 402 412 410 450 452 462 460 401 407 411 405 451 457 461 455 425 427 435 437 430 432 426 436 406 456 431 
27 402 404 414 412 452 454 464 462 403 409 413 407 453 459 463 457 427 429 437 439 432 434 428 438 408 458 433 
27 410 412 422 420 460 462 472 470 411 417 421 415 461 467 471 465 435 437 445 447 440 442 436 446 416 466 441 
27 412 414 424 422 462 464 474 472 413 419 423 417 463 469 473 467 437 439 447 449 442 444 438 448 418 468 443 
27 450 452 462 460 500 502 512 510 451 457 461 455 501 507 511 505 475 477 485 487 480 482 476 486 456 506 481 
27 452 454 464 462 502 504 514 512 453 459 463 457 503 509 513 507 477 479 487 489 482 484 478 488 458 508 483 
27 460 462 472 470 510 512 522 520 461 467 471 465 511 517 521 515 485 487 495 497 490 492 486 496 466 516 491 
27 462 464 474 472 512 514 524 522 463 469 473 467 513 519 523 517 487 489 497 499 492 494 488 498 468 518 493 

CELL_TYPES 40
72
72
72
72
72
72
72
72
72
72
72
72
72
72
72
72
72
72
72
72
72
72
72
72
72
72
72
72
72
72
72
72
72
72
72
72
72
72
72
72

POINT_DATA 525
SCALARS point_var float 1
LOOKUP_TABLE default
0
1
2
3
4
5
6
7
8
9
10
11
12
13
14
15
16
17
18
19
20
21
22
23
24
25
26
27
28
29
30
31
32
33
34
35
36
37
38
39
40
41
42
43
44
45
46
47
48
49
50
51
52
53
54
55
56
57
58
59
60
61
62
63
64
65
66
67
68
69
70
71
72
73
74
75
76
77
78
79
80
81
82
83
84
85
86
87
88
89
90
91
92
93
94
95
96
97
98
99
100
101
102
103
104
105
106
107
108
109
110
111
112
113
114
115
116
117
118
119
120
121
122
123
124
125
126
127
128
129
130
131
132
133
134
135
136
137
138
139
140
141
142
143
144
145
146
147
148
149
150
151
152
153
154
155
156
157
158
159
160
161
162
163
164
165
166
167
168
169
170
171
172
173
174
175
176
177
178
179
180
181
182
183
184
185
186
187
188
189
190
191
192
193
194
195
196
197
198
199
200
201
202
203
204
205
206
207
208
209
210
211
212
213
214
215
216
217
218
219
220
221
222
223
224
225
226
227
228
229
230
231
232
233
234
235
236
237
238
239
240
241
242
243
244
245
246
247
248
249
250
251
252
253
254
255
256
257
258
259
260
261
262
263
264
265
266
267
268
269
270
271
272
273
274
275
276
277
278
279
280
281
282
283
284
285
286
287
288
289
290
291
292
293
294
295
296
297
298
299
300
301
302
303
304
305
306
307
308
309
310
311
312
313
314
315
316
317
318
319
320
321
322
323
324
325
326
327
328
329
330
331
332
333
334
335
336
337
338
339
340
341
342
343
344
345
346
347
348
349
350
351
352
353
354
355
356
357
358
359
360
361
362
363
364
365
366
367
368
369
370
371
372
373
374
375
376
377
378
379
380
381
382
383
384
385
386
387
388
389
390
391
392
393
394
395
396
397
398
399
400
401
402
403
404
405
406
407
408
409
410
411
412
413
414
415
416
417
418
419
420
421
422
423
424
425
426
427
428
429
430
431
432
433
434
435
436
437
438
439
440
441
442
443
444
445
446
447
448
449
450
451
452
453
454
455
456
457
458
459
460
461
462
463
464
465
466
467
468
469
470
471
472
473
474
475
476
477
478
479
480
481
482
483
484
485
486
487
488
489
490
491
492
493
494
495
496
497
498
499
500
501
502
503
504
505
506
507
508
509
510
511
512
513
514
515
516
517
518
519
520
521
522
523
524

VECTORS point_vec float
0 1 2
0 1 2
0 1 2
0 1 2
0 1 2
0 1 2
0 1 2
0 1 2
0 1 2
0 1 2
0 1 2
0 1 2
0 1 2
0 1 2
0 1 2
0 1 2
0 1 2
0 1 2
0 1 2
0 1 2
0 1 2
0 1 2
0 1 2
0 1 2
0 1 2
0 1 2
0 1 2
0 1 2
0 1 2
0 1 2
0 1 2
0 1 2
0 1 2
0 1 2
0 1 2
0 1 2
0 1 2
0 1 2
0 1 2
0 1 2
0 1 2
0 1 2
0 1 2
0 1 2
0 1 2
0 1 2
0 1 2
0 1 2
0 1 2
0 1 2
0 1 2
0 1 2
0 1 2
0 1 2
0 1 2
0 1 2
0 1 2
0 1 2
0 1 2
0 1 2
0 1 2
0 1 2
0 1 2
0 1 2
0 1 2
0 1 2
0 1 2
0 1 2
0 1 2
0 1 2
0 1 2
0 1 2
0 1 2
0 1 2
0 1 2
0 1 2
0 1 2
0 1 2
0 1 2
0 1 2
0 1 2
0 1 2
0 1 2
0 1 2
0 1 2
0 1 2
0 1 2
0 1 2
0 1 2
0 1 2
0 1 2
0 1 2
0 1 2
0 1 2
0 1 2
0 1 2
0 1 2
0 1 2
0 1 2
0 1 2
0 1 2
0 1 2
0 1 2
0 1 2
0 1 2
0 1 2
0 1 2
0 1 2
0 1 2
0 1 2
0 1 2
0 1 2
0 1 2
0 1 2
0 1 2
0 1 2
0 1 2
0 1 2
0 1 2
0 1 2
0 1 2
0 1 2
0 1 2
0 1 2
0 1 2
0 1 2
0 1 2
0 1 2
0 1 2
0 1 2
0 1 2
0 1 2
0 1 2
0 1 2
0 1 2
0 1 2
0 1 2
0 1 2
0 1 2
0 1 2
0 1 2
0 1 2
0 1 2
0 1 2
0 1 2
0 1 2
0 1 2
0 1 2
0 1 2
0 1 2
0 1 2
0 1 2
0 1 2
0 1 2
0 1 2
0 1 2
0 1 2
0 1 2
0 1 2
0 1 2
0 1 2
0 1 2
0 1 2
0 1 2
0 1 2
0 1 2
0 1 2
0 1 2
0 1 2
0 1 2
0 1 2
0 1 2
0 1 2
0 1 2
0 1 2
0 1 2
0 1 2
0 1 2
0 1 2
0 1 2
0 1 2
0 1 2
0 1 2
0 1 2
0 1 2
0 1 2
0 1 2
0 1 2
0 1 2
0 1 2
0 1 2
0 1 2
0 1 2
0 1 2
0 1 2
0 1 2
0 1 2
0 1 2
0 1 2
0 1 2
0 1 2
0 1 2
0 1 2
0 1 2
0 1 2
0 1 2
0 1 2
0 1 2
0 1 2
0 1 2
0 1 2
0 1 2
0 1 2
0 1 2
0 1 2
0 1 2
0 1 2
0 1 2
0 1 2
0 1 2
0 1 2
0 1 2
0 1 2
0 1 2
0 1 2
0 1 2
0 1 2
0 1 2
0 1 2
0 1 2
0 1 2
0 1 2
0 1 2
0 1 2
0 1 2
0 1 2
0 1 2
0 1 2
0 1 2
0 1 2
0 1 2
0 1 2
0 1 2
0 1 2
0 1 2
0 1 2
0 1 2
0 1 2
0 1 2
0 1 2
0 1 2
0 1 2
0 1 2
0 1 2
0 1 2
0 1 2
0 1 2
0 1 2
0 1 2
0 1 2
0 1 2
0 1 2
0 1 2
0 1 2
0 1 2
0 1 2
0 1 2
0 1 2
0 1 2
0 1 2
0 1 2
0 1 2
0 1 2
0 1 2
0 1 2
0 1 2
0 1 2
0 1 2
0 1 2
0 1 2
0 1 2
0 1 2
0 1 2
0 1 2
0 1 2
0 1 2
0 1 2
0 1 2
0 1 2
0 1 2
0 1 2
0 1 2
0 1 2
0 1 2
0 1 2
0 1 2
0 1 2
0 1 2
0 1 2
0 1 2
0 1 2
0 1 2
0 1 2
0 1 2
0 1 2
0 1 2
0 1 2
0 1 2
0 1 2
0 1 2
0 1 2
0 1 2
0 1 2
0 1 2
0 1 2
0 1 2
0 1 2
0 1 2
0 1 2
0 1 2
0 1 2
0 1 2
0 1 2
0 1 2
0 1 2
0 1 2
0 1 2
0 1 2
0 1 2
0 1 2
0 1 2
0 1 2
0 1 2
0 1 2
0 1 2
0 1 2
0 1 2
0 1 2
0 1 2
0 1 2
0 1 2
0 1 2
0 1 2
0 1 2
0 1 2
0 1 2
0 1 2
0 1 2
0 1 2
0 1 2
0 1 2
0 1 2
0 1 2
0 1 2
0 1 2
0 1 2
0 1 2
0 1 2
0 1 2
0 1 2
0 1 2
0 1 2
0 1 2
0 1 2
0 1 2
0 1 2
0 1 2
0 1 2
0 1 2
0 1 2
0 1 2
0 1 2
0 1 2
0 1 2
0 1 2
0 1 2
0 1 2
0 1 2
0 1 2
0 1 2
0 1 2
0 1 2
0 1 2
0 1 2
0 1 2
0 1 2
0 1 2
0 1 2
0 1 2
0 1 2
0 1 2
0 1 2
0 1 2
0 1 2
0 1 2
0 1 2
0 1 2
0 1 2
0 1 2
0 1 2
0 1 2
0 1 2
0 1 2
0 1 2
0 1 2
0 1 2
0 1 2
0 1 2
0 1 2
0 1 2
0 1 2
0 1 2
0 1 2
0 1 2
0 1 2
0 1 2
0 1 2
0 1 2
0 1 2
0 1 2
0 1 2
0 1 2
0 1 2
0 1 2
0 1 2
0 1 2
0 1 2
0 1 2
0 1 2
0 1 2
0 1 2
0 1 2
0 1 2
0 1 2
0 1 2
0 1 2
0 1 2
0 1 2
0 1 2
0 1 2
0 1 2
0 1 2
0 1 2
0 1 2
0 1 2
0 1 2
0 1 2
0 1 2
0 1 2
0 1 2
0 1 2
0 1 2
0 1 2
0 1 2
0 1 2
0 1 2
0 1 2
0 1 2
0 1 2
0 1 2
0 1 2
0 1 2
0 1 2
0 1 2
0 1 2
0 1 2
0 1 2
0 1 2
0 1 2
0 1 2
0 1 2
0 1 2
0 1 2
0 1 2
0 1 2
0 1 2
0 1 2
0 1 2
0 1 2
0 1 2
0 1 2
0 1 2
0 1 2
0 1 2
0 1 2
0 1 2
0 1 2
0 1 2
0 1 2
0 1 2
0 1 2
0 1 2
0 1 2
0 1 2
0 1 2
0 1 2
0 1 2
0 1 2
0 1 2
0 1 2
0 1 2
0 1 2
0 1 2
0 1 2
0 1 2
0 1 2
0 1 2
0 1 2
0 1 2
0 1 2
0 1 2
0 1 2
0 1 2
0 1 2
0 1 2
0 1 2
0 1 2
0 1 2
0 1 2
0 1 2
0 1 2
0 1 2
0 1 2
0 1 2
0 1 2

CELL_DATA 40
SCALARS elem_var float 1
LOOKUP_TABLE default 
0
1
2
3
4
5
6
7
8
9
10
11
12
13
14
15
16
17
18
19
20
21
22
23
24
25
26
27
28
29
30
31
32
33
34
35
36
37
38
39

SCALARS elem_var2 float 1
LOOKUP_TABLE default 
0
18446744073709551615
18446744073709551614
18446744073709551613
18446744073709551612
18446744073709551611
18446744073709551610
18446744073709551609
18446744073709551608
18446744073709551607
18446744073709551606
18446744073709551605
18446744073709551604
18446744073709551603
18446744073709551602
18446744073709551601
18446744073709551600
18446744073709551599
18446744073709551598
18446744073709551597
18446744073709551596
18446744073709551595
18446744073709551594
18446744073709551593
18446744073709551592
18446744073709551591
18446744073709551590
18446744073709551589
18446744073709551588
18446744073709551587
18446744073709551586
18446744073709551585
18446744073709551584
18446744073709551583
18446744073709551582
18446744073709551581
18446744073709551580
18446744073709551579
18446744073709551578
18446744073709551577
