# vtk DataFile Version 2.0
Mesh for Fierro
ASCII
DATASET UNSTRUCTURED_GRID

POINTS 363 float
0 0 0 
0.1 0 0 
0.2 0 0 
0.3 0 0 
0.4 0 0 
0.5 0 0 
0.6 0 0 
0.7 0 0 
0.8 0 0 
0.9 0 0 
1 0 0 
0 0.1 0 
0.1 0.1 0 
0.2 0.1 0 
0.3 0.1 0 
0.4 0.1 0 
0.5 0.1 0 
0.6 0.1 0 
0.7 0.1 0 
0.8 0.1 0 
0.9 0.1 0 
1 0.1 0 
0 0.2 0 
0.1 0.2 0 
0.2 0.2 0 
0.3 0.2 0 
0.4 0.2 0 
0.5 0.2 0 
0.6 0.2 0 
0.7 0.2 0 
0.8 0.2 0 
0.9 0.2 0 
1 0.2 0 
0 0.3 0 
0.1 0.3 0 
0.2 0.3 0 
0.3 0.3 0 
0.4 0.3 0 
0.5 0.3 0 
0.6 0.3 0 
0.7 0.3 0 
0.8 0.3 0 
0.9 0.3 0 
1 0.3 0 
0 0.4 0 
0.1 0.4 0 
0.2 0.4 0 
0.3 0.4 0 
0.4 0.4 0 
0.5 0.4 0 
0.6 0.4 0 
0.7 0.4 0 
0.8 0.4 0 
0.9 0.4 0 
1 0.4 0 
0 0.5 0 
0.1 0.5 0 
0.2 0.5 0 
0.3 0.5 0 
0.4 0.5 0 
0.5 0.5 0 
0.6 0.5 0 
0.7 0.5 0 
0.8 0.5 0 
0.9 0.5 0 
1 0.5 0 
0 0.6 0 
0.1 0.6 0 
0.2 0.6 0 
0.3 0.6 0 
0.4 0.6 0 
0.5 0.6 0 
0.6 0.6 0 
0.7 0.6 0 
0.8 0.6 0 
0.9 0.6 0 
1 0.6 0 
0 0.7 0 
0.1 0.7 0 
0.2 0.7 0 
0.3 0.7 0 
0.4 0.7 0 
0.5 0.7 0 
0.6 0.7 0 
0.7 0.7 0 
0.8 0.7 0 
0.9 0.7 0 
1 0.7 0 
0 0.8 0 
0.1 0.8 0 
0.2 0.8 0 
0.3 0.8 0 
0.4 0.8 0 
0.5 0.8 0 
0.6 0.8 0 
0.7 0.8 0 
0.8 0.8 0 
0.9 0.8 0 
1 0.8 0 
0 0.9 0 
0.1 0.9 0 
0.2 0.9 0 
0.3 0.9 0 
0.4 0.9 0 
0.5 0.9 0 
0.6 0.9 0 
0.7 0.9 0 
0.8 0.9 0 
0.9 0.9 0 
1 0.9 0 
0 1 0 
0.1 1 0 
0.2 1 0 
0.3 1 0 
0.4 1 0 
0.5 1 0 
0.6 1 0 
0.7 1 0 
0.8 1 0 
0.9 1 0 
1 1 0 
0 0 0.165 
0.1 0 0.165 
0.2 0 0.165 
0.3 0 0.165 
0.4 0 0.165 
0.5 0 0.165 
0.6 0 0.165 
0.7 0 0.165 
0.8 0 0.165 
0.9 0 0.165 
1 0 0.165 
0 0.1 0.165 
0.1 0.1 0.165 
0.2 0.1 0.165 
0.3 0.1 0.165 
0.4 0.1 0.165 
0.5 0.1 0.165 
0.6 0.1 0.165 
0.7 0.1 0.165 
0.8 0.1 0.165 
0.9 0.1 0.165 
1 0.1 0.165 
0 0.2 0.165 
0.1 0.2 0.165 
0.2 0.2 0.165 
0.3 0.2 0.165 
0.4 0.2 0.165 
0.5 0.2 0.165 
0.6 0.2 0.165 
0.7 0.2 0.165 
0.8 0.2 0.165 
0.9 0.2 0.165 
1 0.2 0.165 
0 0.3 0.165 
0.1 0.3 0.165 
0.2 0.3 0.165 
0.3 0.3 0.165 
0.4 0.3 0.165 
0.5 0.3 0.165 
0.6 0.3 0.165 
0.7 0.3 0.165 
0.8 0.3 0.165 
0.9 0.3 0.165 
1 0.3 0.165 
0 0.4 0.165 
0.1 0.4 0.165 
0.2 0.4 0.165 
0.3 0.4 0.165 
0.4 0.4 0.165 
0.5 0.4 0.165 
0.6 0.4 0.165 
0.7 0.4 0.165 
0.8 0.4 0.165 
0.9 0.4 0.165 
1 0.4 0.165 
0 0.5 0.165 
0.1 0.5 0.165 
0.2 0.5 0.165 
0.3 0.5 0.165 
0.4 0.5 0.165 
0.5 0.5 0.165 
0.6 0.5 0.165 
0.7 0.5 0.165 
0.8 0.5 0.165 
0.9 0.5 0.165 
1 0.5 0.165 
0 0.6 0.165 
0.1 0.6 0.165 
0.2 0.6 0.165 
0.3 0.6 0.165 
0.4 0.6 0.165 
0.5 0.6 0.165 
0.6 0.6 0.165 
0.7 0.6 0.165 
0.8 0.6 0.165 
0.9 0.6 0.165 
1 0.6 0.165 
0 0.7 0.165 
0.1 0.7 0.165 
0.2 0.7 0.165 
0.3 0.7 0.165 
0.4 0.7 0.165 
0.5 0.7 0.165 
0.6 0.7 0.165 
0.7 0.7 0.165 
0.8 0.7 0.165 
0.9 0.7 0.165 
1 0.7 0.165 
0 0.8 0.165 
0.1 0.8 0.165 
0.2 0.8 0.165 
0.3 0.8 0.165 
0.4 0.8 0.165 
0.5 0.8 0.165 
0.6 0.8 0.165 
0.7 0.8 0.165 
0.8 0.8 0.165 
0.9 0.8 0.165 
1 0.8 0.165 
0 0.9 0.165 
0.1 0.9 0.165 
0.2 0.9 0.165 
0.3 0.9 0.165 
0.4 0.9 0.165 
0.5 0.9 0.165 
0.6 0.9 0.165 
0.7 0.9 0.165 
0.8 0.9 0.165 
0.9 0.9 0.165 
1 0.9 0.165 
0 1 0.165 
0.1 1 0.165 
0.2 1 0.165 
0.3 1 0.165 
0.4 1 0.165 
0.5 1 0.165 
0.6 1 0.165 
0.7 1 0.165 
0.8 1 0.165 
0.9 1 0.165 
1 1 0.165 
0 0 0.33 
0.1 0 0.33 
0.2 0 0.33 
0.3 0 0.33 
0.4 0 0.33 
0.5 0 0.33 
0.6 0 0.33 
0.7 0 0.33 
0.8 0 0.33 
0.9 0 0.33 
1 0 0.33 
0 0.1 0.33 
0.1 0.1 0.33 
0.2 0.1 0.33 
0.3 0.1 0.33 
0.4 0.1 0.33 
0.5 0.1 0.33 
0.6 0.1 0.33 
0.7 0.1 0.33 
0.8 0.1 0.33 
0.9 0.1 0.33 
1 0.1 0.33 
0 0.2 0.33 
0.1 0.2 0.33 
0.2 0.2 0.33 
0.3 0.2 0.33 
0.4 0.2 0.33 
0.5 0.2 0.33 
0.6 0.2 0.33 
0.7 0.2 0.33 
0.8 0.2 0.33 
0.9 0.2 0.33 
1 0.2 0.33 
0 0.3 0.33 
0.1 0.3 0.33 
0.2 0.3 0.33 
0.3 0.3 0.33 
0.4 0.3 0.33 
0.5 0.3 0.33 
0.6 0.3 0.33 
0.7 0.3 0.33 
0.8 0.3 0.33 
0.9 0.3 0.33 
1 0.3 0.33 
0 0.4 0.33 
0.1 0.4 0.33 
0.2 0.4 0.33 
0.3 0.4 0.33 
0.4 0.4 0.33 
0.5 0.4 0.33 
0.6 0.4 0.33 
0.7 0.4 0.33 
0.8 0.4 0.33 
0.9 0.4 0.33 
1 0.4 0.33 
0 0.5 0.33 
0.1 0.5 0.33 
0.2 0.5 0.33 
0.3 0.5 0.33 
0.4 0.5 0.33 
0.5 0.5 0.33 
0.6 0.5 0.33 
0.7 0.5 0.33 
0.8 0.5 0.33 
0.9 0.5 0.33 
1 0.5 0.33 
0 0.6 0.33 
0.1 0.6 0.33 
0.2 0.6 0.33 
0.3 0.6 0.33 
0.4 0.6 0.33 
0.5 0.6 0.33 
0.6 0.6 0.33 
0.7 0.6 0.33 
0.8 0.6 0.33 
0.9 0.6 0.33 
1 0.6 0.33 
0 0.7 0.33 
0.1 0.7 0.33 
0.2 0.7 0.33 
0.3 0.7 0.33 
0.4 0.7 0.33 
0.5 0.7 0.33 
0.6 0.7 0.33 
0.7 0.7 0.33 
0.8 0.7 0.33 
0.9 0.7 0.33 
1 0.7 0.33 
0 0.8 0.33 
0.1 0.8 0.33 
0.2 0.8 0.33 
0.3 0.8 0.33 
0.4 0.8 0.33 
0.5 0.8 0.33 
0.6 0.8 0.33 
0.7 0.8 0.33 
0.8 0.8 0.33 
0.9 0.8 0.33 
1 0.8 0.33 
0 0.9 0.33 
0.1 0.9 0.33 
0.2 0.9 0.33 
0.3 0.9 0.33 
0.4 0.9 0.33 
0.5 0.9 0.33 
0.6 0.9 0.33 
0.7 0.9 0.33 
0.8 0.9 0.33 
0.9 0.9 0.33 
1 0.9 0.33 
0 1 0.33 
0.1 1 0.33 
0.2 1 0.33 
0.3 1 0.33 
0.4 1 0.33 
0.5 1 0.33 
0.6 1 0.33 
0.7 1 0.33 
0.8 1 0.33 
0.9 1 0.33 
1 1 0.33 

CELLS 25 700
27 0 2 24 22 242 244 266 264 1 13 23 11 243 255 265 253 121 123 143 145 132 134 122 144 12 254 133 
27 2 4 26 24 244 246 268 266 3 15 25 13 245 257 267 255 123 125 145 147 134 136 124 146 14 256 135 
27 4 6 28 26 246 248 270 268 5 17 27 15 247 259 269 257 125 127 147 149 136 138 126 148 16 258 137 
27 6 8 30 28 248 250 272 270 7 19 29 17 249 261 271 259 127 129 149 151 138 140 128 150 18 260 139 
27 8 10 32 30 250 252 274 272 9 21 31 19 251 263 273 261 129 131 151 153 140 142 130 152 20 262 141 
27 22 24 46 44 264 266 288 286 23 35 45 33 265 277 287 275 143 145 165 167 154 156 144 166 34 276 155 
27 24 26 48 46 266 268 290 288 25 37 47 35 267 279 289 277 145 147 167 169 156 158 146 168 36 278 157 
27 26 28 50 48 268 270 292 290 27 39 49 37 269 281 291 279 147 149 169 171 158 160 148 170 38 280 159 
27 28 30 52 50 270 272 294 292 29 41 51 39 271 283 293 281 149 151 171 173 160 162 150 172 40 282 161 
27 30 32 54 52 272 274 296 294 31 43 53 41 273 285 295 283 151 153 173 175 162 164 152 174 42 284 163 
27 44 46 68 66 286 288 310 308 45 57 67 55 287 299 309 297 165 167 187 189 176 178 166 188 56 298 177 
27 46 48 70 68 288 290 312 310 47 59 69 57 289 301 311 299 167 169 189 191 178 180 168 190 58 300 179 
27 48 50 72 70 290 292 314 312 49 61 71 59 291 303 313 301 169 171 191 193 180 182 170 192 60 302 181 
27 50 52 74 72 292 294 316 314 51 63 73 61 293 305 315 303 171 173 193 195 182 184 172 194 62 304 183 
27 52 54 76 74 294 296 318 316 53 65 75 63 295 307 317 305 173 175 195 197 184 186 174 196 64 306 185 
27 66 68 90 88 308 310 332 330 67 79 89 77 309 321 331 319 187 189 209 211 198 200 188 210 78 320 199 
27 68 70 92 90 310 312 334 332 69 81 91 79 311 323 333 321 189 191 211 213 200 202 190 212 80 322 201 
27 70 72 94 92 312 314 336 334 71 83 93 81 313 325 335 323 191 193 213 215 202 204 192 214 82 324 203 
27 72 74 96 94 314 316 338 336 73 85 95 83 315 327 337 325 193 195 215 217 204 206 194 216 84 326 205 
27 74 76 98 96 316 318 340 338 75 87 97 85 317 329 339 327 195 197 217 219 206 208 196 218 86 328 207 
27 88 90 112 110 330 332 354 352 89 101 111 99 331 343 353 341 209 211 231 233 220 222 210 232 100 342 221 
27 90 92 114 112 332 334 356 354 91 103 113 101 333 345 355 343 211 213 233 235 222 224 212 234 102 344 223 
27 92 94 116 114 334 336 358 356 93 105 115 103 335 347 357 345 213 215 235 237 224 226 214 236 104 346 225 
27 94 96 118 116 336 338 360 358 95 107 117 105 337 349 359 347 215 217 237 239 226 228 216 238 106 348 227 
27 96 98 120 118 338 340 362 360 97 109 119 107 339 351 361 349 217 219 239 241 228 230 218 240 108 350 229 

CELL_TYPES 25
72
72
72
72
72
72
72
72
72
72
72
72
72
72
72
72
72
72
72
72
72
72
72
72
72

POINT_DATA 363
SCALARS point_var float 1
LOOKUP_TABLE default
0
1
2
3
4
5
6
7
8
9
10
11
12
13
14
15
16
17
18
19
20
21
22
23
24
25
26
27
28
29
30
31
32
33
34
35
36
37
38
39
40
41
42
43
44
45
46
47
48
49
50
51
52
53
54
55
56
57
58
59
60
61
62
63
64
65
66
67
68
69
70
71
72
73
74
75
76
77
78
79
80
81
82
83
84
85
86
87
88
89
90
91
92
93
94
95
96
97
98
99
100
101
102
103
104
105
106
107
108
109
110
111
112
113
114
115
116
117
118
119
120
121
122
123
124
125
126
127
128
129
130
131
132
133
134
135
136
137
138
139
140
141
142
143
144
145
146
147
148
149
150
151
152
153
154
155
156
157
158
159
160
161
162
163
164
165
166
167
168
169
170
171
172
173
174
175
176
177
178
179
180
181
182
183
184
185
186
187
188
189
190
191
192
193
194
195
196
197
198
199
200
201
202
203
204
205
206
207
208
209
210
211
212
213
214
215
216
217
218
219
220
221
222
223
224
225
226
227
228
229
230
231
232
233
234
235
236
237
238
239
240
241
242
243
244
245
246
247
248
249
250
251
252
253
254
255
256
257
258
259
260
261
262
263
264
265
266
267
268
269
270
271
272
273
274
275
276
277
278
279
280
281
282
283
284
285
286
287
288
289
290
291
292
293
294
295
296
297
298
299
300
301
302
303
304
305
306
307
308
309
310
311
312
313
314
315
316
317
318
319
320
321
322
323
324
325
326
327
328
329
330
331
332
333
334
335
336
337
338
339
340
341
342
343
344
345
346
347
348
349
350
351
352
353
354
355
356
357
358
359
360
361
362

VECTORS point_vec float
0 1 2
0 1 2
0 1 2
0 1 2
0 1 2
0 1 2
0 1 2
0 1 2
0 1 2
0 1 2
0 1 2
0 1 2
0 1 2
0 1 2
0 1 2
0 1 2
0 1 2
0 1 2
0 1 2
0 1 2
0 1 2
0 1 2
0 1 2
0 1 2
0 1 2
0 1 2
0 1 2
0 1 2
0 1 2
0 1 2
0 1 2
0 1 2
0 1 2
0 1 2
0 1 2
0 1 2
0 1 2
0 1 2
0 1 2
0 1 2
0 1 2
0 1 2
0 1 2
0 1 2
0 1 2
0 1 2
0 1 2
0 1 2
0 1 2
0 1 2
0 1 2
0 1 2
0 1 2
0 1 2
0 1 2
0 1 2
0 1 2
0 1 2
0 1 2
0 1 2
0 1 2
0 1 2
0 1 2
0 1 2
0 1 2
0 1 2
0 1 2
0 1 2
0 1 2
0 1 2
0 1 2
0 1 2
0 1 2
0 1 2
0 1 2
0 1 2
0 1 2
0 1 2
0 1 2
0 1 2
0 1 2
0 1 2
0 1 2
0 1 2
0 1 2
0 1 2
0 1 2
0 1 2
0 1 2
0 1 2
0 1 2
0 1 2
0 1 2
0 1 2
0 1 2
0 1 2
0 1 2
0 1 2
0 1 2
0 1 2
0 1 2
0 1 2
0 1 2
0 1 2
0 1 2
0 1 2
0 1 2
0 1 2
0 1 2
0 1 2
0 1 2
0 1 2
0 1 2
0 1 2
0 1 2
0 1 2
0 1 2
0 1 2
0 1 2
0 1 2
0 1 2
0 1 2
0 1 2
0 1 2
0 1 2
0 1 2
0 1 2
0 1 2
0 1 2
0 1 2
0 1 2
0 1 2
0 1 2
0 1 2
0 1 2
0 1 2
0 1 2
0 1 2
0 1 2
0 1 2
0 1 2
0 1 2
0 1 2
0 1 2
0 1 2
0 1 2
0 1 2
0 1 2
0 1 2
0 1 2
0 1 2
0 1 2
0 1 2
0 1 2
0 1 2
0 1 2
0 1 2
0 1 2
0 1 2
0 1 2
0 1 2
0 1 2
0 1 2
0 1 2
0 1 2
0 1 2
0 1 2
0 1 2
0 1 2
0 1 2
0 1 2
0 1 2
0 1 2
0 1 2
0 1 2
0 1 2
0 1 2
0 1 2
0 1 2
0 1 2
0 1 2
0 1 2
0 1 2
0 1 2
0 1 2
0 1 2
0 1 2
0 1 2
0 1 2
0 1 2
0 1 2
0 1 2
0 1 2
0 1 2
0 1 2
0 1 2
0 1 2
0 1 2
0 1 2
0 1 2
0 1 2
0 1 2
0 1 2
0 1 2
0 1 2
0 1 2
0 1 2
0 1 2
0 1 2
0 1 2
0 1 2
0 1 2
0 1 2
0 1 2
0 1 2
0 1 2
0 1 2
0 1 2
0 1 2
0 1 2
0 1 2
0 1 2
0 1 2
0 1 2
0 1 2
0 1 2
0 1 2
0 1 2
0 1 2
0 1 2
0 1 2
0 1 2
0 1 2
0 1 2
0 1 2
0 1 2
0 1 2
0 1 2
0 1 2
0 1 2
0 1 2
0 1 2
0 1 2
0 1 2
0 1 2
0 1 2
0 1 2
0 1 2
0 1 2
0 1 2
0 1 2
0 1 2
0 1 2
0 1 2
0 1 2
0 1 2
0 1 2
0 1 2
0 1 2
0 1 2
0 1 2
0 1 2
0 1 2
0 1 2
0 1 2
0 1 2
0 1 2
0 1 2
0 1 2
0 1 2
0 1 2
0 1 2
0 1 2
0 1 2
0 1 2
0 1 2
0 1 2
0 1 2
0 1 2
0 1 2
0 1 2
0 1 2
0 1 2
0 1 2
0 1 2
0 1 2
0 1 2
0 1 2
0 1 2
0 1 2
0 1 2
0 1 2
0 1 2
0 1 2
0 1 2
0 1 2
0 1 2
0 1 2
0 1 2
0 1 2
0 1 2
0 1 2
0 1 2
0 1 2
0 1 2
0 1 2
0 1 2
0 1 2
0 1 2
0 1 2
0 1 2
0 1 2
0 1 2
0 1 2
0 1 2
0 1 2
0 1 2
0 1 2
0 1 2
0 1 2
0 1 2
0 1 2
0 1 2
0 1 2
0 1 2
0 1 2
0 1 2
0 1 2
0 1 2
0 1 2
0 1 2
0 1 2
0 1 2
0 1 2
0 1 2
0 1 2
0 1 2
0 1 2
0 1 2
0 1 2
0 1 2
0 1 2
0 1 2
0 1 2
0 1 2
0 1 2
0 1 2
0 1 2
0 1 2
0 1 2
0 1 2
0 1 2
0 1 2
0 1 2
0 1 2
0 1 2
0 1 2
0 1 2
0 1 2
0 1 2
0 1 2
0 1 2
0 1 2

CELL_DATA 25
SCALARS elem_var float 1
LOOKUP_TABLE default 
0
1
2
3
4
5
6
7
8
9
10
11
12
13
14
15
16
17
18
19
20
21
22
23
24

SCALARS elem_var2 float 1
LOOKUP_TABLE default 
0
18446744073709551615
18446744073709551614
18446744073709551613
18446744073709551612
18446744073709551611
18446744073709551610
18446744073709551609
18446744073709551608
18446744073709551607
18446744073709551606
18446744073709551605
18446744073709551604
18446744073709551603
18446744073709551602
18446744073709551601
18446744073709551600
18446744073709551599
18446744073709551598
18446744073709551597
18446744073709551596
18446744073709551595
18446744073709551594
18446744073709551593
18446744073709551592
