# vtk DataFile Version 2.0
Mesh for Fierro
ASCII
DATASET UNSTRUCTURED_GRID

POINTS 405 float
0 0 0 
0.5 0 0 
1 0 0 
1.5 0 0 
2 0 0 
2.5 0 0 
3 0 0 
3.5 0 0 
4 0 0 
4.5 0 0 
5 0 0 
5.5 0 0 
6 0 0 
6.5 0 0 
7 0 0 
0 0.375 0 
0.5 0.375 0 
1 0.375 0 
1.5 0.375 0 
2 0.375 0 
2.5 0.375 0 
3 0.375 0 
3.5 0.375 0 
4 0.375 0 
4.5 0.375 0 
5 0.375 0 
5.5 0.375 0 
6 0.375 0 
6.5 0.375 0 
7 0.375 0 
0 0.75 0 
0.5 0.75 0 
1 0.75 0 
1.5 0.75 0 
2 0.75 0 
2.5 0.75 0 
3 0.75 0 
3.5 0.75 0 
4 0.75 0 
4.5 0.75 0 
5 0.75 0 
5.5 0.75 0 
6 0.75 0 
6.5 0.75 0 
7 0.75 0 
0 1.125 0 
0.5 1.125 0 
1 1.125 0 
1.5 1.125 0 
2 1.125 0 
2.5 1.125 0 
3 1.125 0 
3.5 1.125 0 
4 1.125 0 
4.5 1.125 0 
5 1.125 0 
5.5 1.125 0 
6 1.125 0 
6.5 1.125 0 
7 1.125 0 
0 1.5 0 
0.5 1.5 0 
1 1.5 0 
1.5 1.5 0 
2 1.5 0 
2.5 1.5 0 
3 1.5 0 
3.5 1.5 0 
4 1.5 0 
4.5 1.5 0 
5 1.5 0 
5.5 1.5 0 
6 1.5 0 
6.5 1.5 0 
7 1.5 0 
0 1.875 0 
0.5 1.875 0 
1 1.875 0 
1.5 1.875 0 
2 1.875 0 
2.5 1.875 0 
3 1.875 0 
3.5 1.875 0 
4 1.875 0 
4.5 1.875 0 
5 1.875 0 
5.5 1.875 0 
6 1.875 0 
6.5 1.875 0 
7 1.875 0 
0 2.25 0 
0.5 2.25 0 
1 2.25 0 
1.5 2.25 0 
2 2.25 0 
2.5 2.25 0 
3 2.25 0 
3.5 2.25 0 
4 2.25 0 
4.5 2.25 0 
5 2.25 0 
5.5 2.25 0 
6 2.25 0 
6.5 2.25 0 
7 2.25 0 
0 2.625 0 
0.5 2.625 0 
1 2.625 0 
1.5 2.625 0 
2 2.625 0 
2.5 2.625 0 
3 2.625 0 
3.5 2.625 0 
4 2.625 0 
4.5 2.625 0 
5 2.625 0 
5.5 2.625 0 
6 2.625 0 
6.5 2.625 0 
7 2.625 0 
0 3 0 
0.5 3 0 
1 3 0 
1.5 3 0 
2 3 0 
2.5 3 0 
3 3 0 
3.5 3 0 
4 3 0 
4.5 3 0 
5 3 0 
5.5 3 0 
6 3 0 
6.5 3 0 
7 3 0 
0 0 0.05 
0.5 0 0.05 
1 0 0.05 
1.5 0 0.05 
2 0 0.05 
2.5 0 0.05 
3 0 0.05 
3.5 0 0.05 
4 0 0.05 
4.5 0 0.05 
5 0 0.05 
5.5 0 0.05 
6 0 0.05 
6.5 0 0.05 
7 0 0.05 
0 0.375 0.05 
0.5 0.375 0.05 
1 0.375 0.05 
1.5 0.375 0.05 
2 0.375 0.05 
2.5 0.375 0.05 
3 0.375 0.05 
3.5 0.375 0.05 
4 0.375 0.05 
4.5 0.375 0.05 
5 0.375 0.05 
5.5 0.375 0.05 
6 0.375 0.05 
6.5 0.375 0.05 
7 0.375 0.05 
0 0.75 0.05 
0.5 0.75 0.05 
1 0.75 0.05 
1.5 0.75 0.05 
2 0.75 0.05 
2.5 0.75 0.05 
3 0.75 0.05 
3.5 0.75 0.05 
4 0.75 0.05 
4.5 0.75 0.05 
5 0.75 0.05 
5.5 0.75 0.05 
6 0.75 0.05 
6.5 0.75 0.05 
7 0.75 0.05 
0 1.125 0.05 
0.5 1.125 0.05 
1 1.125 0.05 
1.5 1.125 0.05 
2 1.125 0.05 
2.5 1.125 0.05 
3 1.125 0.05 
3.5 1.125 0.05 
4 1.125 0.05 
4.5 1.125 0.05 
5 1.125 0.05 
5.5 1.125 0.05 
6 1.125 0.05 
6.5 1.125 0.05 
7 1.125 0.05 
0 1.5 0.05 
0.5 1.5 0.05 
1 1.5 0.05 
1.5 1.5 0.05 
2 1.5 0.05 
2.5 1.5 0.05 
3 1.5 0.05 
3.5 1.5 0.05 
4 1.5 0.05 
4.5 1.5 0.05 
5 1.5 0.05 
5.5 1.5 0.05 
6 1.5 0.05 
6.5 1.5 0.05 
7 1.5 0.05 
0 1.875 0.05 
0.5 1.875 0.05 
1 1.875 0.05 
1.5 1.875 0.05 
2 1.875 0.05 
2.5 1.875 0.05 
3 1.875 0.05 
3.5 1.875 0.05 
4 1.875 0.05 
4.5 1.875 0.05 
5 1.875 0.05 
5.5 1.875 0.05 
6 1.875 0.05 
6.5 1.875 0.05 
7 1.875 0.05 
0 2.25 0.05 
0.5 2.25 0.05 
1 2.25 0.05 
1.5 2.25 0.05 
2 2.25 0.05 
2.5 2.25 0.05 
3 2.25 0.05 
3.5 2.25 0.05 
4 2.25 0.05 
4.5 2.25 0.05 
5 2.25 0.05 
5.5 2.25 0.05 
6 2.25 0.05 
6.5 2.25 0.05 
7 2.25 0.05 
0 2.625 0.05 
0.5 2.625 0.05 
1 2.625 0.05 
1.5 2.625 0.05 
2 2.625 0.05 
2.5 2.625 0.05 
3 2.625 0.05 
3.5 2.625 0.05 
4 2.625 0.05 
4.5 2.625 0.05 
5 2.625 0.05 
5.5 2.625 0.05 
6 2.625 0.05 
6.5 2.625 0.05 
7 2.625 0.05 
0 3 0.05 
0.5 3 0.05 
1 3 0.05 
1.5 3 0.05 
2 3 0.05 
2.5 3 0.05 
3 3 0.05 
3.5 3 0.05 
4 3 0.05 
4.5 3 0.05 
5 3 0.05 
5.5 3 0.05 
6 3 0.05 
6.5 3 0.05 
7 3 0.05 
0 0 0.1 
0.5 0 0.1 
1 0 0.1 
1.5 0 0.1 
2 0 0.1 
2.5 0 0.1 
3 0 0.1 
3.5 0 0.1 
4 0 0.1 
4.5 0 0.1 
5 0 0.1 
5.5 0 0.1 
6 0 0.1 
6.5 0 0.1 
7 0 0.1 
0 0.375 0.1 
0.5 0.375 0.1 
1 0.375 0.1 
1.5 0.375 0.1 
2 0.375 0.1 
2.5 0.375 0.1 
3 0.375 0.1 
3.5 0.375 0.1 
4 0.375 0.1 
4.5 0.375 0.1 
5 0.375 0.1 
5.5 0.375 0.1 
6 0.375 0.1 
6.5 0.375 0.1 
7 0.375 0.1 
0 0.75 0.1 
0.5 0.75 0.1 
1 0.75 0.1 
1.5 0.75 0.1 
2 0.75 0.1 
2.5 0.75 0.1 
3 0.75 0.1 
3.5 0.75 0.1 
4 0.75 0.1 
4.5 0.75 0.1 
5 0.75 0.1 
5.5 0.75 0.1 
6 0.75 0.1 
6.5 0.75 0.1 
7 0.75 0.1 
0 1.125 0.1 
0.5 1.125 0.1 
1 1.125 0.1 
1.5 1.125 0.1 
2 1.125 0.1 
2.5 1.125 0.1 
3 1.125 0.1 
3.5 1.125 0.1 
4 1.125 0.1 
4.5 1.125 0.1 
5 1.125 0.1 
5.5 1.125 0.1 
6 1.125 0.1 
6.5 1.125 0.1 
7 1.125 0.1 
0 1.5 0.1 
0.5 1.5 0.1 
1 1.5 0.1 
1.5 1.5 0.1 
2 1.5 0.1 
2.5 1.5 0.1 
3 1.5 0.1 
3.5 1.5 0.1 
4 1.5 0.1 
4.5 1.5 0.1 
5 1.5 0.1 
5.5 1.5 0.1 
6 1.5 0.1 
6.5 1.5 0.1 
7 1.5 0.1 
0 1.875 0.1 
0.5 1.875 0.1 
1 1.875 0.1 
1.5 1.875 0.1 
2 1.875 0.1 
2.5 1.875 0.1 
3 1.875 0.1 
3.5 1.875 0.1 
4 1.875 0.1 
4.5 1.875 0.1 
5 1.875 0.1 
5.5 1.875 0.1 
6 1.875 0.1 
6.5 1.875 0.1 
7 1.875 0.1 
0 2.25 0.1 
0.5 2.25 0.1 
1 2.25 0.1 
1.5 2.25 0.1 
2 2.25 0.1 
2.5 2.25 0.1 
3 2.25 0.1 
3.5 2.25 0.1 
4 2.25 0.1 
4.5 2.25 0.1 
5 2.25 0.1 
5.5 2.25 0.1 
6 2.25 0.1 
6.5 2.25 0.1 
7 2.25 0.1 
0 2.625 0.1 
0.5 2.625 0.1 
1 2.625 0.1 
1.5 2.625 0.1 
2 2.625 0.1 
2.5 2.625 0.1 
3 2.625 0.1 
3.5 2.625 0.1 
4 2.625 0.1 
4.5 2.625 0.1 
5 2.625 0.1 
5.5 2.625 0.1 
6 2.625 0.1 
6.5 2.625 0.1 
7 2.625 0.1 
0 3 0.1 
0.5 3 0.1 
1 3 0.1 
1.5 3 0.1 
2 3 0.1 
2.5 3 0.1 
3 3 0.1 
3.5 3 0.1 
4 3 0.1 
4.5 3 0.1 
5 3 0.1 
5.5 3 0.1 
6 3 0.1 
6.5 3 0.1 
7 3 0.1 

CELLS 28 784
27 0 2 32 30 270 272 302 300 1 17 31 15 271 287 301 285 135 137 165 167 150 152 136 166 16 286 151 
27 2 4 34 32 272 274 304 302 3 19 33 17 273 289 303 287 137 139 167 169 152 154 138 168 18 288 153 
27 4 6 36 34 274 276 306 304 5 21 35 19 275 291 305 289 139 141 169 171 154 156 140 170 20 290 155 
27 6 8 38 36 276 278 308 306 7 23 37 21 277 293 307 291 141 143 171 173 156 158 142 172 22 292 157 
27 8 10 40 38 278 280 310 308 9 25 39 23 279 295 309 293 143 145 173 175 158 160 144 174 24 294 159 
27 10 12 42 40 280 282 312 310 11 27 41 25 281 297 311 295 145 147 175 177 160 162 146 176 26 296 161 
27 12 14 44 42 282 284 314 312 13 29 43 27 283 299 313 297 147 149 177 179 162 164 148 178 28 298 163 
27 30 32 62 60 300 302 332 330 31 47 61 45 301 317 331 315 165 167 195 197 180 182 166 196 46 316 181 
27 32 34 64 62 302 304 334 332 33 49 63 47 303 319 333 317 167 169 197 199 182 184 168 198 48 318 183 
27 34 36 66 64 304 306 336 334 35 51 65 49 305 321 335 319 169 171 199 201 184 186 170 200 50 320 185 
27 36 38 68 66 306 308 338 336 37 53 67 51 307 323 337 321 171 173 201 203 186 188 172 202 52 322 187 
27 38 40 70 68 308 310 340 338 39 55 69 53 309 325 339 323 173 175 203 205 188 190 174 204 54 324 189 
27 40 42 72 70 310 312 342 340 41 57 71 55 311 327 341 325 175 177 205 207 190 192 176 206 56 326 191 
27 42 44 74 72 312 314 344 342 43 59 73 57 313 329 343 327 177 179 207 209 192 194 178 208 58 328 193 
27 60 62 92 90 330 332 362 360 61 77 91 75 331 347 361 345 195 197 225 227 210 212 196 226 76 346 211 
27 62 64 94 92 332 334 364 362 63 79 93 77 333 349 363 347 197 199 227 229 212 214 198 228 78 348 213 
27 64 66 96 94 334 336 366 364 65 81 95 79 335 351 365 349 199 201 229 231 214 216 200 230 80 350 215 
27 66 68 98 96 336 338 368 366 67 83 97 81 337 353 367 351 201 203 231 233 216 218 202 232 82 352 217 
27 68 70 100 98 338 340 370 368 69 85 99 83 339 355 369 353 203 205 233 235 218 220 204 234 84 354 219 
27 70 72 102 100 340 342 372 370 71 87 101 85 341 357 371 355 205 207 235 237 220 222 206 236 86 356 221 
27 72 74 104 102 342 344 374 372 73 89 103 87 343 359 373 357 207 209 237 239 222 224 208 238 88 358 223 
27 90 92 122 120 360 362 392 390 91 107 121 105 361 377 391 375 225 227 255 257 240 242 226 256 106 376 241 
27 92 94 124 122 362 364 394 392 93 109 123 107 363 379 393 377 227 229 257 259 242 244 228 258 108 378 243 
27 94 96 126 124 364 366 396 394 95 111 125 109 365 381 395 379 229 231 259 261 244 246 230 260 110 380 245 
27 96 98 128 126 366 368 398 396 97 113 127 111 367 383 397 381 231 233 261 263 246 248 232 262 112 382 247 
27 98 100 130 128 368 370 400 398 99 115 129 113 369 385 399 383 233 235 263 265 248 250 234 264 114 384 249 
27 100 102 132 130 370 372 402 400 101 117 131 115 371 387 401 385 235 237 265 267 250 252 236 266 116 386 251 
27 102 104 134 132 372 374 404 402 103 119 133 117 373 389 403 387 237 239 267 269 252 254 238 268 118 388 253 

CELL_TYPES 28
72
72
72
72
72
72
72
72
72
72
72
72
72
72
72
72
72
72
72
72
72
72
72
72
72
72
72
72

POINT_DATA 405
SCALARS point_var float 1
LOOKUP_TABLE default
0
1
2
3
4
5
6
7
8
9
10
11
12
13
14
15
16
17
18
19
20
21
22
23
24
25
26
27
28
29
30
31
32
33
34
35
36
37
38
39
40
41
42
43
44
45
46
47
48
49
50
51
52
53
54
55
56
57
58
59
60
61
62
63
64
65
66
67
68
69
70
71
72
73
74
75
76
77
78
79
80
81
82
83
84
85
86
87
88
89
90
91
92
93
94
95
96
97
98
99
100
101
102
103
104
105
106
107
108
109
110
111
112
113
114
115
116
117
118
119
120
121
122
123
124
125
126
127
128
129
130
131
132
133
134
135
136
137
138
139
140
141
142
143
144
145
146
147
148
149
150
151
152
153
154
155
156
157
158
159
160
161
162
163
164
165
166
167
168
169
170
171
172
173
174
175
176
177
178
179
180
181
182
183
184
185
186
187
188
189
190
191
192
193
194
195
196
197
198
199
200
201
202
203
204
205
206
207
208
209
210
211
212
213
214
215
216
217
218
219
220
221
222
223
224
225
226
227
228
229
230
231
232
233
234
235
236
237
238
239
240
241
242
243
244
245
246
247
248
249
250
251
252
253
254
255
256
257
258
259
260
261
262
263
264
265
266
267
268
269
270
271
272
273
274
275
276
277
278
279
280
281
282
283
284
285
286
287
288
289
290
291
292
293
294
295
296
297
298
299
300
301
302
303
304
305
306
307
308
309
310
311
312
313
314
315
316
317
318
319
320
321
322
323
324
325
326
327
328
329
330
331
332
333
334
335
336
337
338
339
340
341
342
343
344
345
346
347
348
349
350
351
352
353
354
355
356
357
358
359
360
361
362
363
364
365
366
367
368
369
370
371
372
373
374
375
376
377
378
379
380
381
382
383
384
385
386
387
388
389
390
391
392
393
394
395
396
397
398
399
400
401
402
403
404

VECTORS point_vec float
0 1 2
0 1 2
0 1 2
0 1 2
0 1 2
0 1 2
0 1 2
0 1 2
0 1 2
0 1 2
0 1 2
0 1 2
0 1 2
0 1 2
0 1 2
0 1 2
0 1 2
0 1 2
0 1 2
0 1 2
0 1 2
0 1 2
0 1 2
0 1 2
0 1 2
0 1 2
0 1 2
0 1 2
0 1 2
0 1 2
0 1 2
0 1 2
0 1 2
0 1 2
0 1 2
0 1 2
0 1 2
0 1 2
0 1 2
0 1 2
0 1 2
0 1 2
0 1 2
0 1 2
0 1 2
0 1 2
0 1 2
0 1 2
0 1 2
0 1 2
0 1 2
0 1 2
0 1 2
0 1 2
0 1 2
0 1 2
0 1 2
0 1 2
0 1 2
0 1 2
0 1 2
0 1 2
0 1 2
0 1 2
0 1 2
0 1 2
0 1 2
0 1 2
0 1 2
0 1 2
0 1 2
0 1 2
0 1 2
0 1 2
0 1 2
0 1 2
0 1 2
0 1 2
0 1 2
0 1 2
0 1 2
0 1 2
0 1 2
0 1 2
0 1 2
0 1 2
0 1 2
0 1 2
0 1 2
0 1 2
0 1 2
0 1 2
0 1 2
0 1 2
0 1 2
0 1 2
0 1 2
0 1 2
0 1 2
0 1 2
0 1 2
0 1 2
0 1 2
0 1 2
0 1 2
0 1 2
0 1 2
0 1 2
0 1 2
0 1 2
0 1 2
0 1 2
0 1 2
0 1 2
0 1 2
0 1 2
0 1 2
0 1 2
0 1 2
0 1 2
0 1 2
0 1 2
0 1 2
0 1 2
0 1 2
0 1 2
0 1 2
0 1 2
0 1 2
0 1 2
0 1 2
0 1 2
0 1 2
0 1 2
0 1 2
0 1 2
0 1 2
0 1 2
0 1 2
0 1 2
0 1 2
0 1 2
0 1 2
0 1 2
0 1 2
0 1 2
0 1 2
0 1 2
0 1 2
0 1 2
0 1 2
0 1 2
0 1 2
0 1 2
0 1 2
0 1 2
0 1 2
0 1 2
0 1 2
0 1 2
0 1 2
0 1 2
0 1 2
0 1 2
0 1 2
0 1 2
0 1 2
0 1 2
0 1 2
0 1 2
0 1 2
0 1 2
0 1 2
0 1 2
0 1 2
0 1 2
0 1 2
0 1 2
0 1 2
0 1 2
0 1 2
0 1 2
0 1 2
0 1 2
0 1 2
0 1 2
0 1 2
0 1 2
0 1 2
0 1 2
0 1 2
0 1 2
0 1 2
0 1 2
0 1 2
0 1 2
0 1 2
0 1 2
0 1 2
0 1 2
0 1 2
0 1 2
0 1 2
0 1 2
0 1 2
0 1 2
0 1 2
0 1 2
0 1 2
0 1 2
0 1 2
0 1 2
0 1 2
0 1 2
0 1 2
0 1 2
0 1 2
0 1 2
0 1 2
0 1 2
0 1 2
0 1 2
0 1 2
0 1 2
0 1 2
0 1 2
0 1 2
0 1 2
0 1 2
0 1 2
0 1 2
0 1 2
0 1 2
0 1 2
0 1 2
0 1 2
0 1 2
0 1 2
0 1 2
0 1 2
0 1 2
0 1 2
0 1 2
0 1 2
0 1 2
0 1 2
0 1 2
0 1 2
0 1 2
0 1 2
0 1 2
0 1 2
0 1 2
0 1 2
0 1 2
0 1 2
0 1 2
0 1 2
0 1 2
0 1 2
0 1 2
0 1 2
0 1 2
0 1 2
0 1 2
0 1 2
0 1 2
0 1 2
0 1 2
0 1 2
0 1 2
0 1 2
0 1 2
0 1 2
0 1 2
0 1 2
0 1 2
0 1 2
0 1 2
0 1 2
0 1 2
0 1 2
0 1 2
0 1 2
0 1 2
0 1 2
0 1 2
0 1 2
0 1 2
0 1 2
0 1 2
0 1 2
0 1 2
0 1 2
0 1 2
0 1 2
0 1 2
0 1 2
0 1 2
0 1 2
0 1 2
0 1 2
0 1 2
0 1 2
0 1 2
0 1 2
0 1 2
0 1 2
0 1 2
0 1 2
0 1 2
0 1 2
0 1 2
0 1 2
0 1 2
0 1 2
0 1 2
0 1 2
0 1 2
0 1 2
0 1 2
0 1 2
0 1 2
0 1 2
0 1 2
0 1 2
0 1 2
0 1 2
0 1 2
0 1 2
0 1 2
0 1 2
0 1 2
0 1 2
0 1 2
0 1 2
0 1 2
0 1 2
0 1 2
0 1 2
0 1 2
0 1 2
0 1 2
0 1 2
0 1 2
0 1 2
0 1 2
0 1 2
0 1 2
0 1 2
0 1 2
0 1 2
0 1 2
0 1 2
0 1 2
0 1 2
0 1 2
0 1 2
0 1 2
0 1 2
0 1 2
0 1 2
0 1 2
0 1 2
0 1 2
0 1 2
0 1 2
0 1 2
0 1 2
0 1 2
0 1 2
0 1 2
0 1 2
0 1 2
0 1 2
0 1 2
0 1 2
0 1 2
0 1 2
0 1 2
0 1 2
0 1 2
0 1 2
0 1 2
0 1 2
0 1 2
0 1 2
0 1 2
0 1 2
0 1 2
0 1 2
0 1 2
0 1 2
0 1 2
0 1 2
0 1 2
0 1 2
0 1 2
0 1 2
0 1 2
0 1 2
0 1 2
0 1 2
0 1 2
0 1 2

CELL_DATA 28
SCALARS elem_var float 1
LOOKUP_TABLE default 
0
1
2
3
4
5
6
7
8
9
10
11
12
13
14
15
16
17
18
19
20
21
22
23
24
25
26
27

SCALARS elem_var2 float 1
LOOKUP_TABLE default 
0
18446744073709551615
18446744073709551614
18446744073709551613
18446744073709551612
18446744073709551611
18446744073709551610
18446744073709551609
18446744073709551608
18446744073709551607
18446744073709551606
18446744073709551605
18446744073709551604
18446744073709551603
18446744073709551602
18446744073709551601
18446744073709551600
18446744073709551599
18446744073709551598
18446744073709551597
18446744073709551596
18446744073709551595
18446744073709551594
18446744073709551593
18446744073709551592
18446744073709551591
18446744073709551590
18446744073709551589
