# vtk DataFile Version 2.0
Mesh for Fierro
ASCII
DATASET UNSTRUCTURED_GRID

POINTS 405 float
0 0 0 
0.875 0 0 
1.75 0 0 
2.625 0 0 
3.5 0 0 
4.375 0 0 
5.25 0 0 
6.125 0 0 
7 0 0 
0 0.214286 0 
0.875 0.214286 0 
1.75 0.214286 0 
2.625 0.214286 0 
3.5 0.214286 0 
4.375 0.214286 0 
5.25 0.214286 0 
6.125 0.214286 0 
7 0.214286 0 
0 0.428571 0 
0.875 0.428571 0 
1.75 0.428571 0 
2.625 0.428571 0 
3.5 0.428571 0 
4.375 0.428571 0 
5.25 0.428571 0 
6.125 0.428571 0 
7 0.428571 0 
0 0.642857 0 
0.875 0.642857 0 
1.75 0.642857 0 
2.625 0.642857 0 
3.5 0.642857 0 
4.375 0.642857 0 
5.25 0.642857 0 
6.125 0.642857 0 
7 0.642857 0 
0 0.857143 0 
0.875 0.857143 0 
1.75 0.857143 0 
2.625 0.857143 0 
3.5 0.857143 0 
4.375 0.857143 0 
5.25 0.857143 0 
6.125 0.857143 0 
7 0.857143 0 
0 1.07143 0 
0.875 1.07143 0 
1.75 1.07143 0 
2.625 1.07143 0 
3.5 1.07143 0 
4.375 1.07143 0 
5.25 1.07143 0 
6.125 1.07143 0 
7 1.07143 0 
0 1.28571 0 
0.875 1.28571 0 
1.75 1.28571 0 
2.625 1.28571 0 
3.5 1.28571 0 
4.375 1.28571 0 
5.25 1.28571 0 
6.125 1.28571 0 
7 1.28571 0 
0 1.5 0 
0.875 1.5 0 
1.75 1.5 0 
2.625 1.5 0 
3.5 1.5 0 
4.375 1.5 0 
5.25 1.5 0 
6.125 1.5 0 
7 1.5 0 
0 1.71429 0 
0.875 1.71429 0 
1.75 1.71429 0 
2.625 1.71429 0 
3.5 1.71429 0 
4.375 1.71429 0 
5.25 1.71429 0 
6.125 1.71429 0 
7 1.71429 0 
0 1.92857 0 
0.875 1.92857 0 
1.75 1.92857 0 
2.625 1.92857 0 
3.5 1.92857 0 
4.375 1.92857 0 
5.25 1.92857 0 
6.125 1.92857 0 
7 1.92857 0 
0 2.14286 0 
0.875 2.14286 0 
1.75 2.14286 0 
2.625 2.14286 0 
3.5 2.14286 0 
4.375 2.14286 0 
5.25 2.14286 0 
6.125 2.14286 0 
7 2.14286 0 
0 2.35714 0 
0.875 2.35714 0 
1.75 2.35714 0 
2.625 2.35714 0 
3.5 2.35714 0 
4.375 2.35714 0 
5.25 2.35714 0 
6.125 2.35714 0 
7 2.35714 0 
0 2.57143 0 
0.875 2.57143 0 
1.75 2.57143 0 
2.625 2.57143 0 
3.5 2.57143 0 
4.375 2.57143 0 
5.25 2.57143 0 
6.125 2.57143 0 
7 2.57143 0 
0 2.78571 0 
0.875 2.78571 0 
1.75 2.78571 0 
2.625 2.78571 0 
3.5 2.78571 0 
4.375 2.78571 0 
5.25 2.78571 0 
6.125 2.78571 0 
7 2.78571 0 
0 3 0 
0.875 3 0 
1.75 3 0 
2.625 3 0 
3.5 3 0 
4.375 3 0 
5.25 3 0 
6.125 3 0 
7 3 0 
0 0 0.05 
0.875 0 0.05 
1.75 0 0.05 
2.625 0 0.05 
3.5 0 0.05 
4.375 0 0.05 
5.25 0 0.05 
6.125 0 0.05 
7 0 0.05 
0 0.214286 0.05 
0.875 0.214286 0.05 
1.75 0.214286 0.05 
2.625 0.214286 0.05 
3.5 0.214286 0.05 
4.375 0.214286 0.05 
5.25 0.214286 0.05 
6.125 0.214286 0.05 
7 0.214286 0.05 
0 0.428571 0.05 
0.875 0.428571 0.05 
1.75 0.428571 0.05 
2.625 0.428571 0.05 
3.5 0.428571 0.05 
4.375 0.428571 0.05 
5.25 0.428571 0.05 
6.125 0.428571 0.05 
7 0.428571 0.05 
0 0.642857 0.05 
0.875 0.642857 0.05 
1.75 0.642857 0.05 
2.625 0.642857 0.05 
3.5 0.642857 0.05 
4.375 0.642857 0.05 
5.25 0.642857 0.05 
6.125 0.642857 0.05 
7 0.642857 0.05 
0 0.857143 0.05 
0.875 0.857143 0.05 
1.75 0.857143 0.05 
2.625 0.857143 0.05 
3.5 0.857143 0.05 
4.375 0.857143 0.05 
5.25 0.857143 0.05 
6.125 0.857143 0.05 
7 0.857143 0.05 
0 1.07143 0.05 
0.875 1.07143 0.05 
1.75 1.07143 0.05 
2.625 1.07143 0.05 
3.5 1.07143 0.05 
4.375 1.07143 0.05 
5.25 1.07143 0.05 
6.125 1.07143 0.05 
7 1.07143 0.05 
0 1.28571 0.05 
0.875 1.28571 0.05 
1.75 1.28571 0.05 
2.625 1.28571 0.05 
3.5 1.28571 0.05 
4.375 1.28571 0.05 
5.25 1.28571 0.05 
6.125 1.28571 0.05 
7 1.28571 0.05 
0 1.5 0.05 
0.875 1.5 0.05 
1.75 1.5 0.05 
2.625 1.5 0.05 
3.5 1.5 0.05 
4.375 1.5 0.05 
5.25 1.5 0.05 
6.125 1.5 0.05 
7 1.5 0.05 
0 1.71429 0.05 
0.875 1.71429 0.05 
1.75 1.71429 0.05 
2.625 1.71429 0.05 
3.5 1.71429 0.05 
4.375 1.71429 0.05 
5.25 1.71429 0.05 
6.125 1.71429 0.05 
7 1.71429 0.05 
0 1.92857 0.05 
0.875 1.92857 0.05 
1.75 1.92857 0.05 
2.625 1.92857 0.05 
3.5 1.92857 0.05 
4.375 1.92857 0.05 
5.25 1.92857 0.05 
6.125 1.92857 0.05 
7 1.92857 0.05 
0 2.14286 0.05 
0.875 2.14286 0.05 
1.75 2.14286 0.05 
2.625 2.14286 0.05 
3.5 2.14286 0.05 
4.375 2.14286 0.05 
5.25 2.14286 0.05 
6.125 2.14286 0.05 
7 2.14286 0.05 
0 2.35714 0.05 
0.875 2.35714 0.05 
1.75 2.35714 0.05 
2.625 2.35714 0.05 
3.5 2.35714 0.05 
4.375 2.35714 0.05 
5.25 2.35714 0.05 
6.125 2.35714 0.05 
7 2.35714 0.05 
0 2.57143 0.05 
0.875 2.57143 0.05 
1.75 2.57143 0.05 
2.625 2.57143 0.05 
3.5 2.57143 0.05 
4.375 2.57143 0.05 
5.25 2.57143 0.05 
6.125 2.57143 0.05 
7 2.57143 0.05 
0 2.78571 0.05 
0.875 2.78571 0.05 
1.75 2.78571 0.05 
2.625 2.78571 0.05 
3.5 2.78571 0.05 
4.375 2.78571 0.05 
5.25 2.78571 0.05 
6.125 2.78571 0.05 
7 2.78571 0.05 
0 3 0.05 
0.875 3 0.05 
1.75 3 0.05 
2.625 3 0.05 
3.5 3 0.05 
4.375 3 0.05 
5.25 3 0.05 
6.125 3 0.05 
7 3 0.05 
0 0 0.1 
0.875 0 0.1 
1.75 0 0.1 
2.625 0 0.1 
3.5 0 0.1 
4.375 0 0.1 
5.25 0 0.1 
6.125 0 0.1 
7 0 0.1 
0 0.214286 0.1 
0.875 0.214286 0.1 
1.75 0.214286 0.1 
2.625 0.214286 0.1 
3.5 0.214286 0.1 
4.375 0.214286 0.1 
5.25 0.214286 0.1 
6.125 0.214286 0.1 
7 0.214286 0.1 
0 0.428571 0.1 
0.875 0.428571 0.1 
1.75 0.428571 0.1 
2.625 0.428571 0.1 
3.5 0.428571 0.1 
4.375 0.428571 0.1 
5.25 0.428571 0.1 
6.125 0.428571 0.1 
7 0.428571 0.1 
0 0.642857 0.1 
0.875 0.642857 0.1 
1.75 0.642857 0.1 
2.625 0.642857 0.1 
3.5 0.642857 0.1 
4.375 0.642857 0.1 
5.25 0.642857 0.1 
6.125 0.642857 0.1 
7 0.642857 0.1 
0 0.857143 0.1 
0.875 0.857143 0.1 
1.75 0.857143 0.1 
2.625 0.857143 0.1 
3.5 0.857143 0.1 
4.375 0.857143 0.1 
5.25 0.857143 0.1 
6.125 0.857143 0.1 
7 0.857143 0.1 
0 1.07143 0.1 
0.875 1.07143 0.1 
1.75 1.07143 0.1 
2.625 1.07143 0.1 
3.5 1.07143 0.1 
4.375 1.07143 0.1 
5.25 1.07143 0.1 
6.125 1.07143 0.1 
7 1.07143 0.1 
0 1.28571 0.1 
0.875 1.28571 0.1 
1.75 1.28571 0.1 
2.625 1.28571 0.1 
3.5 1.28571 0.1 
4.375 1.28571 0.1 
5.25 1.28571 0.1 
6.125 1.28571 0.1 
7 1.28571 0.1 
0 1.5 0.1 
0.875 1.5 0.1 
1.75 1.5 0.1 
2.625 1.5 0.1 
3.5 1.5 0.1 
4.375 1.5 0.1 
5.25 1.5 0.1 
6.125 1.5 0.1 
7 1.5 0.1 
0 1.71429 0.1 
0.875 1.71429 0.1 
1.75 1.71429 0.1 
2.625 1.71429 0.1 
3.5 1.71429 0.1 
4.375 1.71429 0.1 
5.25 1.71429 0.1 
6.125 1.71429 0.1 
7 1.71429 0.1 
0 1.92857 0.1 
0.875 1.92857 0.1 
1.75 1.92857 0.1 
2.625 1.92857 0.1 
3.5 1.92857 0.1 
4.375 1.92857 0.1 
5.25 1.92857 0.1 
6.125 1.92857 0.1 
7 1.92857 0.1 
0 2.14286 0.1 
0.875 2.14286 0.1 
1.75 2.14286 0.1 
2.625 2.14286 0.1 
3.5 2.14286 0.1 
4.375 2.14286 0.1 
5.25 2.14286 0.1 
6.125 2.14286 0.1 
7 2.14286 0.1 
0 2.35714 0.1 
0.875 2.35714 0.1 
1.75 2.35714 0.1 
2.625 2.35714 0.1 
3.5 2.35714 0.1 
4.375 2.35714 0.1 
5.25 2.35714 0.1 
6.125 2.35714 0.1 
7 2.35714 0.1 
0 2.57143 0.1 
0.875 2.57143 0.1 
1.75 2.57143 0.1 
2.625 2.57143 0.1 
3.5 2.57143 0.1 
4.375 2.57143 0.1 
5.25 2.57143 0.1 
6.125 2.57143 0.1 
7 2.57143 0.1 
0 2.78571 0.1 
0.875 2.78571 0.1 
1.75 2.78571 0.1 
2.625 2.78571 0.1 
3.5 2.78571 0.1 
4.375 2.78571 0.1 
5.25 2.78571 0.1 
6.125 2.78571 0.1 
7 2.78571 0.1 
0 3 0.1 
0.875 3 0.1 
1.75 3 0.1 
2.625 3 0.1 
3.5 3 0.1 
4.375 3 0.1 
5.25 3 0.1 
6.125 3 0.1 
7 3 0.1 

CELLS 28 784
27 0 2 20 18 270 272 290 288 1 11 19 9 271 281 289 279 135 137 153 155 144 146 136 154 10 280 145 
27 2 4 22 20 272 274 292 290 3 13 21 11 273 283 291 281 137 139 155 157 146 148 138 156 12 282 147 
27 4 6 24 22 274 276 294 292 5 15 23 13 275 285 293 283 139 141 157 159 148 150 140 158 14 284 149 
27 6 8 26 24 276 278 296 294 7 17 25 15 277 287 295 285 141 143 159 161 150 152 142 160 16 286 151 
27 18 20 38 36 288 290 308 306 19 29 37 27 289 299 307 297 153 155 171 173 162 164 154 172 28 298 163 
27 20 22 40 38 290 292 310 308 21 31 39 29 291 301 309 299 155 157 173 175 164 166 156 174 30 300 165 
27 22 24 42 40 292 294 312 310 23 33 41 31 293 303 311 301 157 159 175 177 166 168 158 176 32 302 167 
27 24 26 44 42 294 296 314 312 25 35 43 33 295 305 313 303 159 161 177 179 168 170 160 178 34 304 169 
27 36 38 56 54 306 308 326 324 37 47 55 45 307 317 325 315 171 173 189 191 180 182 172 190 46 316 181 
27 38 40 58 56 308 310 328 326 39 49 57 47 309 319 327 317 173 175 191 193 182 184 174 192 48 318 183 
27 40 42 60 58 310 312 330 328 41 51 59 49 311 321 329 319 175 177 193 195 184 186 176 194 50 320 185 
27 42 44 62 60 312 314 332 330 43 53 61 51 313 323 331 321 177 179 195 197 186 188 178 196 52 322 187 
27 54 56 74 72 324 326 344 342 55 65 73 63 325 335 343 333 189 191 207 209 198 200 190 208 64 334 199 
27 56 58 76 74 326 328 346 344 57 67 75 65 327 337 345 335 191 193 209 211 200 202 192 210 66 336 201 
27 58 60 78 76 328 330 348 346 59 69 77 67 329 339 347 337 193 195 211 213 202 204 194 212 68 338 203 
27 60 62 80 78 330 332 350 348 61 71 79 69 331 341 349 339 195 197 213 215 204 206 196 214 70 340 205 
27 72 74 92 90 342 344 362 360 73 83 91 81 343 353 361 351 207 209 225 227 216 218 208 226 82 352 217 
27 74 76 94 92 344 346 364 362 75 85 93 83 345 355 363 353 209 211 227 229 218 220 210 228 84 354 219 
27 76 78 96 94 346 348 366 364 77 87 95 85 347 357 365 355 211 213 229 231 220 222 212 230 86 356 221 
27 78 80 98 96 348 350 368 366 79 89 97 87 349 359 367 357 213 215 231 233 222 224 214 232 88 358 223 
27 90 92 110 108 360 362 380 378 91 101 109 99 361 371 379 369 225 227 243 245 234 236 226 244 100 370 235 
27 92 94 112 110 362 364 382 380 93 103 111 101 363 373 381 371 227 229 245 247 236 238 228 246 102 372 237 
27 94 96 114 112 364 366 384 382 95 105 113 103 365 375 383 373 229 231 247 249 238 240 230 248 104 374 239 
27 96 98 116 114 366 368 386 384 97 107 115 105 367 377 385 375 231 233 249 251 240 242 232 250 106 376 241 
27 108 110 128 126 378 380 398 396 109 119 127 117 379 389 397 387 243 245 261 263 252 254 244 262 118 388 253 
27 110 112 130 128 380 382 400 398 111 121 129 119 381 391 399 389 245 247 263 265 254 256 246 264 120 390 255 
27 112 114 132 130 382 384 402 400 113 123 131 121 383 393 401 391 247 249 265 267 256 258 248 266 122 392 257 
27 114 116 134 132 384 386 404 402 115 125 133 123 385 395 403 393 249 251 267 269 258 260 250 268 124 394 259 

CELL_TYPES 28
72
72
72
72
72
72
72
72
72
72
72
72
72
72
72
72
72
72
72
72
72
72
72
72
72
72
72
72

POINT_DATA 405
SCALARS point_var float 1
LOOKUP_TABLE default
0
1
2
3
4
5
6
7
8
9
10
11
12
13
14
15
16
17
18
19
20
21
22
23
24
25
26
27
28
29
30
31
32
33
34
35
36
37
38
39
40
41
42
43
44
45
46
47
48
49
50
51
52
53
54
55
56
57
58
59
60
61
62
63
64
65
66
67
68
69
70
71
72
73
74
75
76
77
78
79
80
81
82
83
84
85
86
87
88
89
90
91
92
93
94
95
96
97
98
99
100
101
102
103
104
105
106
107
108
109
110
111
112
113
114
115
116
117
118
119
120
121
122
123
124
125
126
127
128
129
130
131
132
133
134
135
136
137
138
139
140
141
142
143
144
145
146
147
148
149
150
151
152
153
154
155
156
157
158
159
160
161
162
163
164
165
166
167
168
169
170
171
172
173
174
175
176
177
178
179
180
181
182
183
184
185
186
187
188
189
190
191
192
193
194
195
196
197
198
199
200
201
202
203
204
205
206
207
208
209
210
211
212
213
214
215
216
217
218
219
220
221
222
223
224
225
226
227
228
229
230
231
232
233
234
235
236
237
238
239
240
241
242
243
244
245
246
247
248
249
250
251
252
253
254
255
256
257
258
259
260
261
262
263
264
265
266
267
268
269
270
271
272
273
274
275
276
277
278
279
280
281
282
283
284
285
286
287
288
289
290
291
292
293
294
295
296
297
298
299
300
301
302
303
304
305
306
307
308
309
310
311
312
313
314
315
316
317
318
319
320
321
322
323
324
325
326
327
328
329
330
331
332
333
334
335
336
337
338
339
340
341
342
343
344
345
346
347
348
349
350
351
352
353
354
355
356
357
358
359
360
361
362
363
364
365
366
367
368
369
370
371
372
373
374
375
376
377
378
379
380
381
382
383
384
385
386
387
388
389
390
391
392
393
394
395
396
397
398
399
400
401
402
403
404

VECTORS point_vec float
0 1 2
0 1 2
0 1 2
0 1 2
0 1 2
0 1 2
0 1 2
0 1 2
0 1 2
0 1 2
0 1 2
0 1 2
0 1 2
0 1 2
0 1 2
0 1 2
0 1 2
0 1 2
0 1 2
0 1 2
0 1 2
0 1 2
0 1 2
0 1 2
0 1 2
0 1 2
0 1 2
0 1 2
0 1 2
0 1 2
0 1 2
0 1 2
0 1 2
0 1 2
0 1 2
0 1 2
0 1 2
0 1 2
0 1 2
0 1 2
0 1 2
0 1 2
0 1 2
0 1 2
0 1 2
0 1 2
0 1 2
0 1 2
0 1 2
0 1 2
0 1 2
0 1 2
0 1 2
0 1 2
0 1 2
0 1 2
0 1 2
0 1 2
0 1 2
0 1 2
0 1 2
0 1 2
0 1 2
0 1 2
0 1 2
0 1 2
0 1 2
0 1 2
0 1 2
0 1 2
0 1 2
0 1 2
0 1 2
0 1 2
0 1 2
0 1 2
0 1 2
0 1 2
0 1 2
0 1 2
0 1 2
0 1 2
0 1 2
0 1 2
0 1 2
0 1 2
0 1 2
0 1 2
0 1 2
0 1 2
0 1 2
0 1 2
0 1 2
0 1 2
0 1 2
0 1 2
0 1 2
0 1 2
0 1 2
0 1 2
0 1 2
0 1 2
0 1 2
0 1 2
0 1 2
0 1 2
0 1 2
0 1 2
0 1 2
0 1 2
0 1 2
0 1 2
0 1 2
0 1 2
0 1 2
0 1 2
0 1 2
0 1 2
0 1 2
0 1 2
0 1 2
0 1 2
0 1 2
0 1 2
0 1 2
0 1 2
0 1 2
0 1 2
0 1 2
0 1 2
0 1 2
0 1 2
0 1 2
0 1 2
0 1 2
0 1 2
0 1 2
0 1 2
0 1 2
0 1 2
0 1 2
0 1 2
0 1 2
0 1 2
0 1 2
0 1 2
0 1 2
0 1 2
0 1 2
0 1 2
0 1 2
0 1 2
0 1 2
0 1 2
0 1 2
0 1 2
0 1 2
0 1 2
0 1 2
0 1 2
0 1 2
0 1 2
0 1 2
0 1 2
0 1 2
0 1 2
0 1 2
0 1 2
0 1 2
0 1 2
0 1 2
0 1 2
0 1 2
0 1 2
0 1 2
0 1 2
0 1 2
0 1 2
0 1 2
0 1 2
0 1 2
0 1 2
0 1 2
0 1 2
0 1 2
0 1 2
0 1 2
0 1 2
0 1 2
0 1 2
0 1 2
0 1 2
0 1 2
0 1 2
0 1 2
0 1 2
0 1 2
0 1 2
0 1 2
0 1 2
0 1 2
0 1 2
0 1 2
0 1 2
0 1 2
0 1 2
0 1 2
0 1 2
0 1 2
0 1 2
0 1 2
0 1 2
0 1 2
0 1 2
0 1 2
0 1 2
0 1 2
0 1 2
0 1 2
0 1 2
0 1 2
0 1 2
0 1 2
0 1 2
0 1 2
0 1 2
0 1 2
0 1 2
0 1 2
0 1 2
0 1 2
0 1 2
0 1 2
0 1 2
0 1 2
0 1 2
0 1 2
0 1 2
0 1 2
0 1 2
0 1 2
0 1 2
0 1 2
0 1 2
0 1 2
0 1 2
0 1 2
0 1 2
0 1 2
0 1 2
0 1 2
0 1 2
0 1 2
0 1 2
0 1 2
0 1 2
0 1 2
0 1 2
0 1 2
0 1 2
0 1 2
0 1 2
0 1 2
0 1 2
0 1 2
0 1 2
0 1 2
0 1 2
0 1 2
0 1 2
0 1 2
0 1 2
0 1 2
0 1 2
0 1 2
0 1 2
0 1 2
0 1 2
0 1 2
0 1 2
0 1 2
0 1 2
0 1 2
0 1 2
0 1 2
0 1 2
0 1 2
0 1 2
0 1 2
0 1 2
0 1 2
0 1 2
0 1 2
0 1 2
0 1 2
0 1 2
0 1 2
0 1 2
0 1 2
0 1 2
0 1 2
0 1 2
0 1 2
0 1 2
0 1 2
0 1 2
0 1 2
0 1 2
0 1 2
0 1 2
0 1 2
0 1 2
0 1 2
0 1 2
0 1 2
0 1 2
0 1 2
0 1 2
0 1 2
0 1 2
0 1 2
0 1 2
0 1 2
0 1 2
0 1 2
0 1 2
0 1 2
0 1 2
0 1 2
0 1 2
0 1 2
0 1 2
0 1 2
0 1 2
0 1 2
0 1 2
0 1 2
0 1 2
0 1 2
0 1 2
0 1 2
0 1 2
0 1 2
0 1 2
0 1 2
0 1 2
0 1 2
0 1 2
0 1 2
0 1 2
0 1 2
0 1 2
0 1 2
0 1 2
0 1 2
0 1 2
0 1 2
0 1 2
0 1 2
0 1 2
0 1 2
0 1 2
0 1 2
0 1 2
0 1 2
0 1 2
0 1 2
0 1 2
0 1 2
0 1 2
0 1 2
0 1 2
0 1 2
0 1 2
0 1 2
0 1 2
0 1 2
0 1 2
0 1 2
0 1 2
0 1 2
0 1 2
0 1 2
0 1 2
0 1 2
0 1 2
0 1 2
0 1 2
0 1 2
0 1 2
0 1 2
0 1 2
0 1 2
0 1 2
0 1 2
0 1 2
0 1 2
0 1 2
0 1 2
0 1 2
0 1 2
0 1 2
0 1 2
0 1 2
0 1 2

CELL_DATA 28
SCALARS elem_var float 1
LOOKUP_TABLE default 
0
1
2
3
4
5
6
7
8
9
10
11
12
13
14
15
16
17
18
19
20
21
22
23
24
25
26
27

SCALARS elem_var2 float 1
LOOKUP_TABLE default 
0
18446744073709551615
18446744073709551614
18446744073709551613
18446744073709551612
18446744073709551611
18446744073709551610
18446744073709551609
18446744073709551608
18446744073709551607
18446744073709551606
18446744073709551605
18446744073709551604
18446744073709551603
18446744073709551602
18446744073709551601
18446744073709551600
18446744073709551599
18446744073709551598
18446744073709551597
18446744073709551596
18446744073709551595
18446744073709551594
18446744073709551593
18446744073709551592
18446744073709551591
18446744073709551590
18446744073709551589
