# vtk DataFile Version 2.0
Mesh for Fierro
ASCII 
DATASET UNSTRUCTURED_GRID

POINTS 2527 float
0.000000 0.000000 0.000000
0.492538 0.000000 0.000000
0.789605 0.000000 0.000000
0.833397 0.000000 0.000000
0.877727 0.000000 0.000000
0.902451 0.000000 0.000000
0.918962 0.000000 0.000000
0.932202 0.000000 0.000000
0.943058 0.000000 0.000000
0.951896 0.000000 0.000000
0.959154 0.000000 0.000000
0.965147 0.000000 0.000000
0.970073 0.000000 0.000000
0.974599 0.000000 0.000000
0.979000 0.000000 0.000000
0.983899 0.000000 0.000000
0.989266 0.000000 0.000000
0.994755 0.000000 0.000000
1.000000 0.000000 0.000000
0.000000 0.005246 0.000000
0.494733 0.006931 0.000000
0.775227 0.030983 0.000000
0.820238 0.065171 0.000000
0.870527 0.077386 0.000000
0.893203 0.148431 0.000000
0.909537 0.192854 0.000000
0.920805 0.240655 0.000000
0.929618 0.288892 0.000000
0.936781 0.336462 0.000000
0.943440 0.377477 0.000000
0.949788 0.418149 0.000000
0.955739 0.454765 0.000000
0.962531 0.479377 0.000000
0.969588 0.497509 0.000000
0.977500 0.504024 0.000000
0.985379 0.504688 0.000000
0.993088 0.494666 0.000000
1.000000 0.492042 0.000000
0.000000 0.010721 0.000000
0.504069 0.014634 0.000000
0.751682 0.053590 0.000000
0.806370 0.111601 0.000000
0.862795 0.156964 0.000000
0.878259 0.259576 0.000000
0.889993 0.339340 0.000000
0.897125 0.408700 0.000000
0.899507 0.476704 0.000000
0.899531 0.532480 0.000000
0.897037 0.579289 0.000000
0.894299 0.616991 0.000000
0.893635 0.649566 0.000000
0.899051 0.677207 0.000000
0.911311 0.700934 0.000000
0.926810 0.726909 0.000000
0.946495 0.751496 0.000000
0.969046 0.775359 0.000000
1.000000 0.789975 0.000000
0.000000 0.016087 0.000000
0.504323 0.022513 0.000000
0.726952 0.073289 0.000000
0.796979 0.146910 0.000000
0.843022 0.223485 0.000000
0.852692 0.325660 0.000000
0.851116 0.419821 0.000000
0.852456 0.482706 0.000000
0.838844 0.551400 0.000000
0.824990 0.605554 0.000000
0.808318 0.656460 0.000000
0.799872 0.699531 0.000000
0.797205 0.736510 0.000000
0.805690 0.765505 0.000000
0.824769 0.784906 0.000000
0.853075 0.796947 0.000000
0.888482 0.806365 0.000000
0.934789 0.820154 0.000000
1.000000 0.833435 0.000000
0.000000 0.020978 0.000000
0.497653 0.030411 0.000000
0.700845 0.088802 0.000000
0.784976 0.175221 0.000000
0.813007 0.273678 0.000000
0.824775 0.372547 0.000000
0.803787 0.473380 0.000000
0.798946 0.538838 0.000000
0.768624 0.605872 0.000000
0.743022 0.653425 0.000000
0.722204 0.692342 0.000000
0.707967 0.724320 0.000000
0.696910 0.752059 0.000000
0.706126 0.781862 0.000000
0.726263 0.813070 0.000000
0.776647 0.842979 0.000000
0.842983 0.862770 0.000000
0.922678 0.870668 0.000000
1.000000 0.878041 0.000000
0.000000 0.025382 0.000000
0.479188 0.037448 0.000000
0.677109 0.100931 0.000000
0.765454 0.194230 0.000000
0.781869 0.293789 0.000000
0.793274 0.393756 0.000000
0.760845 0.483658 0.000000
0.748485 0.551170 0.000000
0.708311 0.602011 0.000000
0.672483 0.643918 0.000000
0.639277 0.682475 0.000000
0.614888 0.720095 0.000000
0.598555 0.757385 0.000000
0.606242 0.793257 0.000000
0.627511 0.824728 0.000000
0.674245 0.852734 0.000000
0.740374 0.878230 0.000000
0.851267 0.893128 0.000000
1.000000 0.902421 0.000000
0.000000 0.029929 0.000000
0.454765 0.044257 0.000000
0.649479 0.106396 0.000000
0.736558 0.202826 0.000000
0.752046 0.303141 0.000000
0.757419 0.401401 0.000000
0.720967 0.483670 0.000000
0.693055 0.550487 0.000000
0.639054 0.591221 0.000000
0.601504 0.630485 0.000000
0.562232 0.660164 0.000000
0.541036 0.694100 0.000000
0.516260 0.721009 0.000000
0.516301 0.760944 0.000000
0.526618 0.803914 0.000000
0.580315 0.851186 0.000000
0.660510 0.890058 0.000000
0.807362 0.909480 0.000000
1.000000 0.918630 0.000000
0.000000 0.034852 0.000000
0.417975 0.050193 0.000000
0.616880 0.105663 0.000000
0.699594 0.200159 0.000000
0.724280 0.292049 0.000000
0.720097 0.385086 0.000000
0.694092 0.458952 0.000000
0.658772 0.519835 0.000000
0.608461 0.554544 0.000000
0.561114 0.590470 0.000000
0.515719 0.621468 0.000000
0.480175 0.658748 0.000000
0.449573 0.692996 0.000000
0.448805 0.748475 0.000000
0.461134 0.798937 0.000000
0.517412 0.852544 0.000000
0.591218 0.897239 0.000000
0.759246 0.920804 0.000000
1.000000 0.931892 0.000000
0.000000 0.040844 0.000000
0.377337 0.056556 0.000000
0.579231 0.102951 0.000000
0.656485 0.191632 0.000000
0.692322 0.277762 0.000000
0.682459 0.360692 0.000000
0.660212 0.437721 0.000000
0.621504 0.484266 0.000000
0.575383 0.515333 0.000000
0.529073 0.547014 0.000000
0.484670 0.575422 0.000000
0.445405 0.608469 0.000000
0.408699 0.639040 0.000000
0.398040 0.708389 0.000000
0.394053 0.768620 0.000000
0.448589 0.838790 0.000000
0.522886 0.899524 0.000000
0.710998 0.929652 0.000000
1.000000 0.943033 0.000000
0.000000 0.048119 0.000000
0.336609 0.063256 0.000000
0.532479 0.100476 0.000000
0.605626 0.175020 0.000000
0.653437 0.257032 0.000000
0.643912 0.327537 0.000000
0.630489 0.398544 0.000000
0.590420 0.438929 0.000000
0.546986 0.470921 0.000000
0.499988 0.500028 0.000000
0.452953 0.529086 0.000000
0.409543 0.561087 0.000000
0.369556 0.601493 0.000000
0.356103 0.672479 0.000000
0.346538 0.742951 0.000000
0.394341 0.824904 0.000000
0.467353 0.899510 0.000000
0.663103 0.936824 0.000000
1.000000 0.951956 0.000000
0.000000 0.056945 0.000000
0.289154 0.070409 0.000000
0.476971 0.100560 0.000000
0.551437 0.161197 0.000000
0.605878 0.231283 0.000000
0.602007 0.291631 0.000000
0.591287 0.360983 0.000000
0.554592 0.391524 0.000000
0.515291 0.424595 0.000000
0.470949 0.452999 0.000000
0.424591 0.484676 0.000000
0.378509 0.515715 0.000000
0.339787 0.562289 0.000000
0.317555 0.639324 0.000000
0.307647 0.722263 0.000000
0.343595 0.808479 0.000000
0.420684 0.897113 0.000000
0.622428 0.943509 0.000000
1.000000 0.959225 0.000000
0.000000 0.067786 0.000000
0.240737 0.079197 0.000000
0.408853 0.102841 0.000000
0.482717 0.147549 0.000000
0.538824 0.201107 0.000000
0.551133 0.251551 0.000000
0.550428 0.306938 0.000000
0.519860 0.341235 0.000000
0.484274 0.378503 0.000000
0.438906 0.409571 0.000000
0.391544 0.445418 0.000000
0.341224 0.480204 0.000000
0.305891 0.541099 0.000000
0.279918 0.614885 0.000000
0.275689 0.708037 0.000000
0.300490 0.799918 0.000000
0.383025 0.894421 0.000000
0.582123 0.949879 0.000000
1.000000 0.965203 0.000000
0.000000 0.080974 0.000000
0.192704 0.090399 0.000000
0.339234 0.109871 0.000000
0.419802 0.148702 0.000000
0.473393 0.196200 0.000000
0.483646 0.239148 0.000000
0.483604 0.279066 0.000000
0.458937 0.305960 0.000000
0.437745 0.339844 0.000000
0.398494 0.369524 0.000000
0.360988 0.408700 0.000000
0.306979 0.449589 0.000000
0.279043 0.516330 0.000000
0.242599 0.598358 0.000000
0.248004 0.696988 0.000000
0.263423 0.797260 0.000000
0.350360 0.893655 0.000000
0.545241 0.955806 0.000000
1.000000 0.970086 0.000000
0.000000 0.097519 0.000000
0.148639 0.106755 0.000000
0.259683 0.121757 0.000000
0.325881 0.147303 0.000000
0.372505 0.175175 0.000000
0.393772 0.206674 0.000000
0.401528 0.242566 0.000000
0.385133 0.279915 0.000000
0.360720 0.317531 0.000000
0.327492 0.356056 0.000000
0.291673 0.397997 0.000000
0.251539 0.448832 0.000000
0.239108 0.516317 0.000000
0.206706 0.606203 0.000000
0.218277 0.706232 0.000000
0.234427 0.805737 0.000000
0.322831 0.899208 0.000000
0.520554 0.962584 0.000000
1.000000 0.974552 0.000000
0.000000 0.122191 0.000000
0.077365 0.129406 0.000000
0.156972 0.137210 0.000000
0.223336 0.157054 0.000000
0.273713 0.187031 0.000000
0.293765 0.218282 0.000000
0.303018 0.248009 0.000000
0.291926 0.275701 0.000000
0.277741 0.307638 0.000000
0.257049 0.346516 0.000000
0.231399 0.394050 0.000000
0.201088 0.461170 0.000000
0.196165 0.526603 0.000000
0.175218 0.627508 0.000000
0.187064 0.726321 0.000000
0.215034 0.824853 0.000000
0.299143 0.911351 0.000000
0.501898 0.969565 0.000000
1.000000 0.978927 0.000000
0.000000 0.166698 0.000000
0.065279 0.179750 0.000000
0.111590 0.193741 0.000000
0.146906 0.203092 0.000000
0.175166 0.215061 0.000000
0.194248 0.234468 0.000000
0.202738 0.263448 0.000000
0.200070 0.300487 0.000000
0.191584 0.343543 0.000000
0.175160 0.394312 0.000000
0.161226 0.448629 0.000000
0.147487 0.517389 0.000000
0.148747 0.580234 0.000000
0.147284 0.674143 0.000000
0.157048 0.776562 0.000000
0.203091 0.853129 0.000000
0.273204 0.927008 0.000000
0.495490 0.977422 0.000000
1.000000 0.983882 0.000000
0.000000 0.210680 0.000000
0.031058 0.224705 0.000000
0.053579 0.248387 0.000000
0.072955 0.273275 0.000000
0.088711 0.299061 0.000000
0.100793 0.322848 0.000000
0.106375 0.350323 0.000000
0.105594 0.383023 0.000000
0.102967 0.420622 0.000000
0.100532 0.467357 0.000000
0.100486 0.522907 0.000000
0.102733 0.591255 0.000000
0.109885 0.660508 0.000000
0.121759 0.740270 0.000000
0.137202 0.842998 0.000000
0.193725 0.888379 0.000000
0.248428 0.946560 0.000000
0.495219 0.985316 0.000000
1.000000 0.989272 0.000000
0.000000 0.507780 0.000000
0.006987 0.504698 0.000000
0.014683 0.494955 0.000000
0.022554 0.495687 0.000000
0.030442 0.501744 0.000000
0.037432 0.520380 0.000000
0.044223 0.544970 0.000000
0.050130 0.581920 0.000000
0.056506 0.622146 0.000000
0.063154 0.662980 0.000000
0.070319 0.710932 0.000000
0.079142 0.759277 0.000000
0.090374 0.807121 0.000000
0.106770 0.851254 0.000000
0.129464 0.922686 0.000000
0.179756 0.934698 0.000000
0.224664 0.968957 0.000000
0.504828 0.993020 0.000000
1.000000 0.994762 0.000000
0.000000 1.000000 0.000000
0.005261 1.000000 0.000000
0.010784 1.000000 0.000000
0.016122 1.000000 0.000000
0.021050 1.000000 0.000000
0.025391 1.000000 0.000000
0.029846 1.000000 0.000000
0.034745 1.000000 0.000000
0.040709 1.000000 0.000000
0.047970 1.000000 0.000000
0.056875 1.000000 0.000000
0.067959 1.000000 0.000000
0.081145 1.000000 0.000000
0.097539 1.000000 0.000000
0.122089 1.000000 0.000000
0.166738 1.000000 0.000000
0.210556 1.000000 0.000000
0.507737 1.000000 0.000000
1.000000 1.000000 0.000000
0.000000 0.000000 0.055226
0.492611 0.000000 0.055038
0.788842 0.000000 0.055019
0.833123 0.000000 0.055009
0.877742 0.000000 0.054982
[...]
POINT_DATA 2527 
VECTORS pos float 
0.000000 0.000000 0.000000
0.492538 0.000000 0.000000
0.789605 0.000000 0.000000
0.833397 0.000000 0.000000
0.877727 0.000000 0.000000
0.902451 0.000000 0.000000
0.918962 0.000000 0.000000
0.932202 0.000000 0.000000
0.943058 0.000000 0.000000
0.951896 0.000000 0.000000
0.959154 0.000000 0.000000
0.965147 0.000000 0.000000
0.970073 0.000000 0.000000
0.974599 0.000000 0.000000
0.979000 0.000000 0.000000
0.983899 0.000000 0.000000
0.989266 0.000000 0.000000
0.994755 0.000000 0.000000
1.000000 0.000000 0.000000
0.000000 0.005246 0.000000
0.494733 0.006931 0.000000
0.775227 0.030983 0.000000
0.820238 0.065171 0.000000
0.870527 0.077386 0.000000
0.893203 0.148431 0.000000
0.909537 0.192854 0.000000
0.920805 0.240655 0.000000
0.929618 0.288892 0.000000
0.936781 0.336462 0.000000
0.943440 0.377477 0.000000
0.949788 0.418149 0.000000
0.955739 0.454765 0.000000
0.962531 0.479377 0.000000
0.969588 0.497509 0.000000
0.977500 0.504024 0.000000
0.985379 0.504688 0.000000
0.993088 0.494666 0.000000
1.000000 0.492042 0.000000
0.000000 0.010721 0.000000
0.504069 0.014634 0.000000
0.751682 0.053590 0.000000
0.806370 0.111601 0.000000
0.862795 0.156964 0.000000
0.878259 0.259576 0.000000
0.889993 0.339340 0.000000
0.897125 0.408700 0.000000
0.899507 0.476704 0.000000
0.899531 0.532480 0.000000
0.897037 0.579289 0.000000
0.894299 0.616991 0.000000
0.893635 0.649566 0.000000
0.899051 0.677207 0.000000
0.911311 0.700934 0.000000
0.926810 0.726909 0.000000
0.946495 0.751496 0.000000
0.969046 0.775359 0.000000
1.000000 0.789975 0.000000
0.000000 0.016087 0.000000
0.504323 0.022513 0.000000
0.726952 0.073289 0.000000
0.796979 0.146910 0.000000
0.843022 0.223485 0.000000
0.852692 0.325660 0.000000
0.851116 0.419821 0.000000
0.852456 0.482706 0.000000
0.838844 0.551400 0.000000
0.824990 0.605554 0.000000
0.808318 0.656460 0.000000
0.799872 0.699531 0.000000
0.797205 0.736510 0.000000
0.805690 0.765505 0.000000
0.824769 0.784906 0.000000
0.853075 0.796947 0.000000
0.888482 0.806365 0.000000
0.934789 0.820154 0.000000
1.000000 0.833435 0.000000
0.000000 0.020978 0.000000
0.497653 0.030411 0.000000
0.700845 0.088802 0.000000
0.784976 0.175221 0.000000
0.813007 0.273678 0.000000
0.824775 0.372547 0.000000
0.803787 0.473380 0.000000
0.798946 0.538838 0.000000
0.768624 0.605872 0.000000
0.743022 0.653425 0.000000
0.722204 0.692342 0.000000
0.707967 0.724320 0.000000
0.696910 0.752059 0.000000
0.706126 0.781862 0.000000
0.726263 0.813070 0.000000
0.776647 0.842979 0.000000
0.842983 0.862770 0.000000
0.922678 0.870668 0.000000
1.000000 0.878041 0.000000
0.000000 0.025382 0.000000
0.479188 0.037448 0.000000
0.677109 0.100931 0.000000
0.765454 0.194230 0.000000
0.781869 0.293789 0.000000
0.793274 0.393756 0.000000
0.760845 0.483658 0.000000
0.748485 0.551170 0.000000
0.708311 0.602011 0.000000
0.672483 0.643918 0.000000
0.639277 0.682475 0.000000
0.614888 0.720095 0.000000
0.598555 0.757385 0.000000
0.606242 0.793257 0.000000
0.627511 0.824728 0.000000
0.674245 0.852734 0.000000
0.740374 0.878230 0.000000
0.851267 0.893128 0.000000
1.000000 0.902421 0.000000
0.000000 0.029929 0.000000
0.454765 0.044257 0.000000
0.649479 0.106396 0.000000
0.736558 0.202826 0.000000
0.752046 0.303141 0.000000
0.757419 0.401401 0.000000
0.720967 0.483670 0.000000
0.693055 0.550487 0.000000
0.639054 0.591221 0.000000
0.601504 0.630485 0.000000
0.562232 0.660164 0.000000
0.541036 0.694100 0.000000
0.516260 0.721009 0.000000
0.516301 0.760944 0.000000
0.526618 0.803914 0.000000
0.580315 0.851186 0.000000
0.660510 0.890058 0.000000
0.807362 0.909480 0.000000
1.000000 0.918630 0.000000
0.000000 0.034852 0.000000
0.417975 0.050193 0.000000
0.616880 0.105663 0.000000
0.699594 0.200159 0.000000
0.724280 0.292049 0.000000
0.720097 0.385086 0.000000
0.694092 0.458952 0.000000
0.658772 0.519835 0.000000
0.608461 0.554544 0.000000
0.561114 0.590470 0.000000
0.515719 0.621468 0.000000
0.480175 0.658748 0.000000
0.449573 0.692996 0.000000
0.448805 0.748475 0.000000
0.461134 0.798937 0.000000
0.517412 0.852544 0.000000
0.591218 0.897239 0.000000
0.759246 0.920804 0.000000
1.000000 0.931892 0.000000
0.000000 0.040844 0.000000
0.377337 0.056556 0.000000
0.579231 0.102951 0.000000
0.656485 0.191632 0.000000
0.692322 0.277762 0.000000
0.682459 0.360692 0.000000
0.660212 0.437721 0.000000
0.621504 0.484266 0.000000
0.575383 0.515333 0.000000
0.529073 0.547014 0.000000
0.484670 0.575422 0.000000
0.445405 0.608469 0.000000
0.408699 0.639040 0.000000
0.398040 0.708389 0.000000
0.394053 0.768620 0.000000
0.448589 0.838790 0.000000
0.522886 0.899524 0.000000
0.710998 0.929652 0.000000
1.000000 0.943033 0.000000
0.000000 0.048119 0.000000
0.336609 0.063256 0.000000
0.532479 0.100476 0.000000
0.605626 0.175020 0.000000
0.653437 0.257032 0.000000
0.643912 0.327537 0.000000
0.630489 0.398544 0.000000
0.590420 0.438929 0.000000
0.546986 0.470921 0.000000
0.499988 0.500028 0.000000
0.452953 0.529086 0.000000
0.409543 0.561087 0.000000
0.369556 0.601493 0.000000
0.356103 0.672479 0.000000
0.346538 0.742951 0.000000
0.394341 0.824904 0.000000
0.467353 0.899510 0.000000
0.663103 0.936824 0.000000
1.000000 0.951956 0.000000
0.000000 0.056945 0.000000
0.289154 0.070409 0.000000
0.476971 0.100560 0.000000
0.551437 0.161197 0.000000
0.605878 0.231283 0.000000
0.602007 0.291631 0.000000
0.591287 0.360983 0.000000
0.554592 0.391524 0.000000
0.515291 0.424595 0.000000
0.470949 0.452999 0.000000
0.424591 0.484676 0.000000
0.378509 0.515715 0.000000
0.339787 0.562289 0.000000
0.317555 0.639324 0.000000
0.307647 0.722263 0.000000
0.343595 0.808479 0.000000
0.420684 0.897113 0.000000
0.622428 0.943509 0.000000
1.000000 0.959225 0.000000
0.000000 0.067786 0.000000
0.240737 0.079197 0.000000
0.408853 0.102841 0.000000
0.482717 0.147549 0.000000
0.538824 0.201107 0.000000
0.551133 0.251551 0.000000
0.550428 0.306938 0.000000
0.519860 0.341235 0.000000
0.484274 0.378503 0.000000
0.438906 0.409571 0.000000
0.391544 0.445418 0.000000
0.341224 0.480204 0.000000
0.305891 0.541099 0.000000
0.279918 0.614885 0.000000
0.275689 0.708037 0.000000
0.300490 0.799918 0.000000
0.383025 0.894421 0.000000
0.582123 0.949879 0.000000
1.000000 0.965203 0.000000
0.000000 0.080974 0.000000
0.192704 0.090399 0.000000
0.339234 0.109871 0.000000
0.419802 0.148702 0.000000
0.473393 0.196200 0.000000
0.483646 0.239148 0.000000
0.483604 0.279066 0.000000
0.458937 0.305960 0.000000
0.437745 0.339844 0.000000
0.398494 0.369524 0.000000
0.360988 0.408700 0.000000
0.306979 0.449589 0.000000
0.279043 0.516330 0.000000
0.242599 0.598358 0.000000
0.248004 0.696988 0.000000
0.263423 0.797260 0.000000
0.350360 0.893655 0.000000
0.545241 0.955806 0.000000
1.000000 0.970086 0.000000
0.000000 0.097519 0.000000
0.148639 0.106755 0.000000
0.259683 0.121757 0.000000
0.325881 0.147303 0.000000
0.372505 0.175175 0.000000
0.393772 0.206674 0.000000
0.401528 0.242566 0.000000
0.385133 0.279915 0.000000
0.360720 0.317531 0.000000
0.327492 0.356056 0.000000
0.291673 0.397997 0.000000
0.251539 0.448832 0.000000
0.239108 0.516317 0.000000
0.206706 0.606203 0.000000
0.218277 0.706232 0.000000
0.234427 0.805737 0.000000
0.322831 0.899208 0.000000
0.520554 0.962584 0.000000
1.000000 0.974552 0.000000
0.000000 0.122191 0.000000
0.077365 0.129406 0.000000
0.156972 0.137210 0.000000
0.223336 0.157054 0.000000
0.273713 0.187031 0.000000
0.293765 0.218282 0.000000
0.303018 0.248009 0.000000
0.291926 0.275701 0.000000
0.277741 0.307638 0.000000
0.257049 0.346516 0.000000
0.231399 0.394050 0.000000
0.201088 0.461170 0.000000
0.196165 0.526603 0.000000
0.175218 0.627508 0.000000
0.187064 0.726321 0.000000
0.215034 0.824853 0.000000
0.299143 0.911351 0.000000
0.501898 0.969565 0.000000
1.000000 0.978927 0.000000
0.000000 0.166698 0.000000
0.065279 0.179750 0.000000
0.111590 0.193741 0.000000
0.146906 0.203092 0.000000
0.175166 0.215061 0.000000
0.194248 0.234468 0.000000
0.202738 0.263448 0.000000
0.200070 0.300487 0.000000
0.191584 0.343543 0.000000
0.175160 0.394312 0.000000
0.161226 0.448629 0.000000
0.147487 0.517389 0.000000
0.148747 0.580234 0.000000
0.147284 0.674143 0.000000
0.157048 0.776562 0.000000
0.203091 0.853129 0.000000
0.273204 0.927008 0.000000
0.495490 0.977422 0.000000
1.000000 0.983882 0.000000
0.000000 0.210680 0.000000
0.031058 0.224705 0.000000
0.053579 0.248387 0.000000
0.072955 0.273275 0.000000
0.088711 0.299061 0.000000
0.100793 0.322848 0.000000
0.106375 0.350323 0.000000
0.105594 0.383023 0.000000
0.102967 0.420622 0.000000
0.100532 0.467357 0.000000
0.100486 0.522907 0.000000
0.102733 0.591255 0.000000
0.109885 0.660508 0.000000
0.121759 0.740270 0.000000
0.137202 0.842998 0.000000
0.193725 0.888379 0.000000
0.248428 0.946560 0.000000
0.495219 0.985316 0.000000
1.000000 0.989272 0.000000
0.000000 0.507780 0.000000
0.006987 0.504698 0.000000
0.014683 0.494955 0.000000
0.022554 0.495687 0.000000
0.030442 0.501744 0.000000
0.037432 0.520380 0.000000
0.044223 0.544970 0.000000
0.050130 0.581920 0.000000
0.056506 0.622146 0.000000
0.063154 0.662980 0.000000
0.070319 0.710932 0.000000
0.079142 0.759277 0.000000
0.090374 0.807121 0.000000
0.106770 0.851254 0.000000
0.129464 0.922686 0.000000
0.179756 0.934698 0.000000
0.224664 0.968957 0.000000
0.504828 0.993020 0.000000
1.000000 0.994762 0.000000
0.000000 1.000000 0.000000
0.005261 1.000000 0.000000
0.010784 1.000000 0.000000
0.016122 1.000000 0.000000
0.021050 1.000000 0.000000
0.025391 1.000000 0.000000
0.029846 1.000000 0.000000
0.034745 1.000000 0.000000
0.040709 1.000000 0.000000
0.047970 1.000000 0.000000
0.056875 1.000000 0.000000
0.067959 1.000000 0.000000
0.081145 1.000000 0.000000
0.097539 1.000000 0.000000
0.122089 1.000000 0.000000
0.166738 1.000000 0.000000
0.210556 1.000000 0.000000
0.507737 1.000000 0.000000
1.000000 1.000000 0.000000
0.000000 0.000000 0.055226
0.492611 0.000000 0.055038
0.788842 0.000000 0.055019
0.833123 0.000000 0.055009
0.877742 0.000000 0.054982
0.902577 0.000000 0.054880
0.919140 0.000000 0.055078
0.932266 0.000000 0.055067
0.943117 0.000000 0.055109
0.952028 0.000000 0.055145
0.959286 0.000000 0.055064
0.965302 0.000000 0.054924
0.970218 0.000000 0.054901
0.974664 0.000000 0.054861
0.978976 0.000000 0.054975
0.983876 0.000000 0.054911
0.989252 0.000000 0.055025
0.994738 0.000000 0.055069
1.000000 0.000000 0.055083
0.000000 0.005255 0.055201
0.495436 0.006987 0.055081
0.775015 0.031081 0.055014
0.820191 0.065193 0.054958
0.870586 0.077395 0.055054
0.893276 0.148524 0.054891
0.909724 0.192638 0.055051
0.920855 0.240994 0.055082
0.929645 0.289199 0.055010
0.936807 0.336989 0.054977
0.943490 0.377740 0.055009
0.949875 0.417932 0.054961
0.955753 0.455247 0.054951
0.962548 0.479819 0.054995
0.969558 0.498370 0.055013
0.977470 0.503919 0.055005
0.985305 0.504398 0.055069
0.993002 0.495628 0.055071
1.000000 0.492876 0.055061
0.000000 0.010763 0.055067
0.504721 0.014694 0.055073
0.751586 0.053669 0.055005
0.806365 0.111589 0.055001
0.862748 0.157000 0.055003
0.878268 0.259659 0.055023
0.890132 0.339308 0.054961
0.897157 0.408898 0.054957
0.899463 0.477119 0.054955
0.899492 0.532538 0.054962
0.897117 0.579172 0.055013
0.894442 0.616781 0.054985
0.893531 0.649557 0.055024
0.899036 0.677122 0.055006
0.911059 0.700932 0.055017
0.926755 0.726870 0.055041
0.946341 0.751511 0.055024
0.968894 0.774944 0.055012
1.000000 0.788800 0.055046
0.000000 0.016128 0.054914
0.504191 0.022548 0.055000
0.726864 0.073255 0.054979
0.796931 0.146918 0.054948
0.842988 0.223428 0.055026
0.852736 0.325806 0.055029
0.851198 0.419740 0.054984
0.852482 0.482692 0.054992
0.838802 0.551398 0.054985
0.824912 0.605671 0.055033
0.808435 0.656441 0.055003
0.799908 0.699511 0.055012
0.797188 0.736617 0.055008
0.805769 0.765563 0.054966
0.824841 0.784975 0.054970
0.853066 0.796947 0.054929
0.888412 0.806371 0.054952
0.934823 0.820211 0.054958
1.000000 0.833150 0.055013
0.000000 0.021028 0.054920
0.498164 0.030432 0.054979
0.700910 0.088898 0.054997
0.784952 0.175168 0.054984
0.813006 0.273786 0.054976
0.824748 0.372444 0.055017
0.803861 0.473384 0.054984
0.798936 0.538868 0.054998
0.768634 0.605954 0.054996
0.743010 0.653421 0.055024
0.722218 0.692310 0.054988
0.708099 0.724283 0.055014
0.696921 0.751962 0.054998
0.706284 0.781748 0.055023
0.726179 0.813006 0.054998
0.776594 0.843011 0.055029
0.843045 0.862740 0.055022
0.922567 0.870538 0.054973
1.000000 0.877629 0.054970
0.000000 0.025355 0.054844
0.479835 0.037458 0.054958
0.677123 0.100971 0.055005
0.765549 0.194238 0.054977
0.781750 0.293788 0.055011
0.793290 0.393763 0.055015
0.760881 0.483709 0.054960
0.748482 0.551212 0.055015
0.708339 0.602013 0.055015
0.672434 0.643938 0.054977
0.639288 0.682516 0.054993
0.614840 0.720084 0.055015
0.598536 0.757445 0.055009
0.606226 0.793288 0.054990
0.627567 0.824760 0.054991
0.674154 0.852713 0.054976
0.740349 0.878295 0.054998
0.851525 0.893331 0.055008
1.000000 0.902621 0.055170
0.000000 0.029799 0.054877
0.455038 0.044238 0.054922
0.649544 0.106421 0.055050
0.736622 0.202832 0.055011
0.751966 0.303073 0.054994
0.757440 0.401473 0.055006
0.720984 0.483628 0.054990
0.693084 0.550414 0.055003
0.639030 0.591240 0.054991
0.601540 0.630486 0.055013
0.562280 0.660169 0.055008
0.541017 0.694024 0.054982
0.516391 0.720954 0.055009
0.516315 0.760885 0.054966
0.526575 0.803849 0.055002
0.580232 0.851206 0.055007
0.660753 0.890110 0.055002
0.807256 0.909787 0.054985
1.000000 0.919312 0.054943
0.000000 0.034708 0.054921
0.417928 0.050135 0.054957
0.616825 0.105573 0.055016
0.699496 0.200075 0.055025
0.724286 0.291880 0.054988
0.720075 0.385145 0.055002
0.694066 0.458978 0.054999
0.658779 0.519800 0.054991
0.608473 0.554563 0.054998
0.561100 0.590457 0.055009
0.515731 0.621446 0.055006
0.480189 0.658757 0.055002
0.449598 0.693092 0.054998
0.448814 0.748472 0.055004
0.461133 0.798933 0.054986
0.517325 0.852503 0.054961
0.591124 0.897137 0.054991
0.759027 0.920897 0.054981
1.000000 0.932361 0.054963
0.000000 0.040717 0.055019
0.377582 0.056502 0.055013
0.579179 0.102871 0.055032
0.656437 0.191583 0.055010
0.692296 0.277742 0.055042
0.682521 0.360684 0.055024
0.660186 0.437722 0.055017
0.621460 0.484276 0.054985
0.575398 0.515325 0.054994
0.529080 0.547005 0.054997
0.484686 0.575398 0.054997
0.445453 0.608486 0.055000
0.408767 0.639048 0.055014
0.397988 0.708342 0.055016
0.394077 0.768631 0.055025
0.448581 0.838793 0.054981
0.522872 0.899429 0.054987
0.710778 0.929641 0.055000
1.000000 0.943179 0.054968
0.000000 0.047985 0.055066
0.336922 0.063202 0.054985
0.532492 0.100469 0.055022
0.605681 0.175061 0.055002
0.653403 0.257035 0.055012
0.643929 0.327590 0.054994
0.630471 0.398489 0.055028
0.590455 0.438912 0.055001
0.547012 0.470921 0.055008
0.499994 0.500012 0.055016
0.452974 0.529082 0.055009
0.409533 0.561104 0.055002
0.369526 0.601532 0.054997
0.356078 0.672476 0.054985
0.346570 0.743015 0.055018
0.394353 0.824945 0.055003
0.467452 0.899472 0.055035
0.663255 0.936797 0.055014
1.000000 0.952114 0.055064
0.000000 0.056894 0.055044
0.289311 0.070373 0.055009
0.477101 0.100552 0.055014
0.551417 0.161191 0.054979
0.605941 0.231334 0.054994
0.602004 0.291634 0.054958
0.591255 0.360975 0.055006
0.554556 0.391515 0.054992
0.515311 0.424607 0.054978
0.470926 0.452989 0.055017
0.424608 0.484686 0.054986
0.378527 0.515714 0.055007
0.339857 0.562238 0.055003
0.317508 0.639256 0.054994
0.307679 0.722192 0.054985
0.343567 0.808447 0.054999
0.420863 0.897114 0.055014
0.622603 0.943487 0.054988
1.000000 0.959379 0.054995
0.000000 0.067772 0.055028
0.240983 0.079169 0.055067
0.408899 0.102852 0.055028
0.482707 0.147543 0.055006
0.538861 0.201072 0.054989
0.551192 0.251519 0.055005
0.550420 0.306901 0.055001
0.519850 0.341232 0.054998
0.484271 0.378539 0.054996
0.438891 0.409531 0.054996
0.391531 0.445455 0.054984
0.341213 0.480156 0.054989
0.305969 0.541075 0.055018
0.279893 0.614889 0.055002
0.275712 0.708043 0.055007
0.300519 0.799942 0.054981
0.383127 0.894353 0.055011
0.582081 0.949818 0.055000
1.000000 0.965313 0.055023
0.000000 0.080910 0.055052
0.192536 0.090341 0.055066
0.339233 0.109880 0.055027
0.419693 0.148782 0.055009
0.473393 0.196165 0.055005
0.483690 0.239148 0.055011
0.483576 0.279051 0.054965
0.458973 0.305990 0.055021
0.437739 0.339847 0.055004
0.398450 0.369521 0.055010
0.360972 0.408761 0.055010
0.306879 0.449588 0.054970
0.279056 0.516409 0.055031
0.242561 0.598498 0.055011
0.248010 0.696954 0.054982
0.263389 0.797178 0.055009
0.350420 0.893520 0.055007
0.545162 0.955725 0.055029
1.000000 0.970198 0.054992
0.000000 0.097475 0.054979
0.148712 0.106777 0.054953
0.259685 0.121801 0.054938
0.325814 0.147305 0.054949
0.372477 0.175245 0.054962
0.393771 0.206702 0.054987
0.401409 0.242550 0.054981
0.385131 0.279886 0.054993
0.360738 0.317484 0.054992
0.327552 0.356069 0.055006
0.291661 0.397996 0.054969
0.251506 0.448817 0.054989
0.239131 0.516297 0.055028
0.206701 0.606240 0.054971
0.218233 0.706204 0.055017
0.234405 0.805749 0.055004
0.322831 0.898956 0.054985
0.520329 0.962491 0.055035
1.000000 0.974688 0.055016
0.000000 0.122114 0.054990
0.077389 0.129378 0.055029
0.156934 0.137255 0.055031
0.223362 0.157061 0.055001
0.273781 0.187001 0.055004
0.293804 0.218223 0.055015
0.303042 0.248013 0.055023
0.291932 0.275718 0.055003
0.277779 0.307672 0.055017
0.257014 0.346539 0.055051
0.231376 0.394042 0.054987
0.201063 0.461126 0.055003
0.196148 0.526611 0.054996
0.175245 0.627548 0.054991
0.186985 0.726219 0.054985
0.215029 0.824849 0.055003
0.299001 0.911065 0.055013
0.501925 0.969522 0.055033
1.000000 0.979052 0.055005
0.000000 0.166689 0.054967
0.065208 0.179787 0.054950
0.111562 0.193641 0.054951
0.146895 0.203031 0.055004
0.175168 0.215035 0.054976
0.194223 0.234454 0.055011
0.202775 0.263417 0.055003
0.200053 0.300500 0.055009
0.191559 0.343558 0.055014
0.175046 0.394371 0.055002
0.161210 0.448592 0.054989
0.147541 0.517320 0.054994
0.148790 0.580298 0.055039
0.147286 0.674165 0.054916
0.157038 0.776634 0.055008
0.202998 0.853106 0.054988
0.273102 0.926790 0.055064
0.496089 0.977447 0.054998
1.000000 0.983939 0.055041
0.000000 0.210741 0.054984
0.031021 0.224835 0.055019
0.053521 0.248426 0.055073
0.073216 0.273027 0.055034
0.088894 0.299027 0.055035
0.101008 0.322835 0.054994
0.106454 0.350441 0.055041
0.105636 0.383147 0.055009
0.102909 0.420819 0.054994
0.100545 0.467403 0.055041
0.100578 0.522897 0.054994
0.102870 0.591067 0.054992
0.109872 0.660742 0.055044
0.121761 0.740346 0.054909
0.137193 0.842946 0.055053
0.193647 0.888461 0.054939
0.248491 0.946452 0.055071
0.495424 0.985288 0.054982
1.000000 0.989300 0.055097
0.000000 0.507466 0.054996
0.006980 0.504934 0.054975
0.014707 0.495663 0.055020
0.022562 0.495968 0.055030
0.030469 0.501978 0.055037
0.037496 0.520360 0.055036
0.044273 0.545044 0.055024
0.050175 0.582028 0.054965
0.056523 0.622505 0.054967
0.063220 0.663154 0.055060
0.070372 0.710733 0.055005
0.079159 0.759034 0.055014
0.090322 0.807408 0.055040
0.106730 0.851418 0.054949
0.129384 0.922601 0.054999
0.179786 0.934752 0.054977
0.224833 0.968983 0.054983
0.504874 0.993022 0.054976
1.000000 0.994760 0.054984
0.000000 1.000000 0.054856
0.005245 1.000000 0.054912
0.010712 1.000000 0.055045
0.016089 1.000000 0.055098
0.020979 1.000000 0.055087
0.025339 1.000000 0.055026
0.029829 1.000000 0.054890
0.034736 1.000000 0.054953
0.040690 1.000000 0.054974
0.047970 1.000000 0.055045
0.056899 1.000000 0.054937
0.067772 1.000000 0.054926
0.080898 1.000000 0.054929
0.097442 1.000000 0.055137
0.122221 1.000000 0.054954
0.166642 1.000000 0.055042
0.210801 1.000000 0.054959
0.507474 1.000000 0.054999
1.000000 1.000000 0.054911
0.000000 0.000000 0.109973
0.492339 0.000000 0.109984
0.789479 0.000000 0.110046
0.833380 0.000000 0.109729
0.877897 0.000000 0.110054
0.902479 0.000000 0.109819
0.918890 0.000000 0.110063
0.932115 0.000000 0.110088
0.943031 0.000000 0.110017
0.951991 0.000000 0.109962
0.959296 0.000000 0.110074
0.965292 0.000000 0.110003
0.970176 0.000000 0.109958
0.974622 0.000000 0.110009
0.978942 0.000000 0.110001
0.983832 0.000000 0.110032
0.989194 0.000000 0.110006