# vtk DataFile Version 2.0
Mesh for Fierro
ASCII 
DATASET UNSTRUCTURED_GRID

POINTS 2527 float
0.000000 0.000000 0.000000
0.513281 0.000000 0.000000
0.891705 0.000000 0.000000
0.926355 0.000000 0.000000
0.939010 0.000000 0.000000
0.947906 0.000000 0.000000
0.955189 0.000000 0.000000
0.961784 0.000000 0.000000
0.967484 0.000000 0.000000
0.972704 0.000000 0.000000
0.977074 0.000000 0.000000
0.980646 0.000000 0.000000
0.983307 0.000000 0.000000
0.985427 0.000000 0.000000
0.986731 0.000000 0.000000
0.988904 0.000000 0.000000
0.991990 0.000000 0.000000
0.996809 0.000000 0.000000
1.000000 0.000000 0.000000
0.000000 0.003288 0.000000
0.570748 0.006560 0.000000
0.893816 0.040563 0.000000
0.889357 0.135583 0.000000
0.911914 0.165439 0.000000
0.921104 0.246714 0.000000
0.928468 0.310024 0.000000
0.933481 0.367916 0.000000
0.936801 0.432401 0.000000
0.940036 0.492589 0.000000
0.944196 0.543915 0.000000
0.949292 0.588199 0.000000
0.955110 0.621414 0.000000
0.961513 0.647704 0.000000
0.968116 0.664261 0.000000
0.976757 0.649341 0.000000
0.985556 0.619886 0.000000
0.993334 0.570839 0.000000
1.000000 0.512415 0.000000
0.000000 0.007957 0.000000
0.619700 0.014448 0.000000
0.880061 0.074641 0.000000
0.846838 0.192246 0.000000
0.892297 0.252165 0.000000
0.904100 0.400551 0.000000
0.897922 0.527112 0.000000
0.899562 0.593208 0.000000
0.896286 0.659181 0.000000
0.888073 0.699646 0.000000
0.880019 0.723533 0.000000
0.877405 0.742068 0.000000
0.883018 0.762237 0.000000
0.890174 0.786854 0.000000
0.900473 0.815710 0.000000
0.910132 0.850935 0.000000
0.924850 0.880050 0.000000
0.959187 0.894016 0.000000
1.000000 0.890420 0.000000
0.000000 0.011052 0.000000
0.649811 0.023217 0.000000
0.850668 0.089933 0.000000
0.833957 0.224820 0.000000
0.883666 0.347395 0.000000
0.873919 0.488885 0.000000
0.840946 0.581737 0.000000
0.837309 0.629441 0.000000
0.807138 0.675744 0.000000
0.768155 0.715396 0.000000
0.732638 0.756517 0.000000
0.710840 0.791773 0.000000
0.702801 0.814728 0.000000
0.703016 0.831118 0.000000
0.735443 0.833877 0.000000
0.775934 0.833692 0.000000
0.808354 0.847365 0.000000
0.865087 0.890706 0.000000
1.000000 0.927921 0.000000
0.000000 0.013134 0.000000
0.664481 0.031815 0.000000
0.815612 0.099363 0.000000
0.833978 0.264745 0.000000
0.858241 0.414073 0.000000
0.838549 0.514053 0.000000
0.782975 0.610000 0.000000
0.757467 0.664056 0.000000
0.698368 0.715351 0.000000
0.652581 0.747957 0.000000
0.621615 0.762837 0.000000
0.596938 0.772530 0.000000
0.579948 0.789587 0.000000
0.571467 0.818982 0.000000
0.585946 0.858194 0.000000
0.653233 0.883210 0.000000
0.748650 0.891358 0.000000
0.834755 0.915288 0.000000
1.000000 0.946055 0.000000
0.000000 0.014404 0.000000
0.647326 0.038431 0.000000
0.786661 0.109651 0.000000
0.831057 0.296525 0.000000
0.819142 0.428236 0.000000
0.808057 0.522607 0.000000
0.738342 0.607417 0.000000
0.701108 0.659171 0.000000
0.650662 0.687005 0.000000
0.592129 0.697156 0.000000
0.538660 0.713137 0.000000
0.490915 0.741322 0.000000
0.476519 0.774573 0.000000
0.477253 0.808312 0.000000
0.486159 0.838515 0.000000
0.510748 0.874195 0.000000
0.598696 0.902960 0.000000
0.750885 0.920650 0.000000
1.000000 0.950290 0.000000
0.000000 0.016505 0.000000
0.621212 0.044902 0.000000
0.762058 0.117260 0.000000
0.814863 0.297169 0.000000
0.789662 0.420260 0.000000
0.774797 0.523502 0.000000
0.700459 0.589626 0.000000
0.645937 0.636367 0.000000
0.572234 0.646464 0.000000
0.515846 0.660487 0.000000
0.472813 0.673199 0.000000
0.441334 0.686801 0.000000
0.410118 0.700636 0.000000
0.392599 0.738270 0.000000
0.389970 0.783402 0.000000
0.418108 0.841063 0.000000
0.473367 0.898330 0.000000
0.691447 0.927248 0.000000
1.000000 0.954895 0.000000
0.000000 0.019133 0.000000
0.587824 0.050692 0.000000
0.742034 0.122765 0.000000
0.791854 0.289050 0.000000
0.772517 0.403138 0.000000
0.741367 0.508889 0.000000
0.686772 0.558598 0.000000
0.624577 0.598422 0.000000
0.565193 0.603138 0.000000
0.503997 0.608121 0.000000
0.450062 0.613330 0.000000
0.401647 0.624623 0.000000
0.363665 0.645979 0.000000
0.340799 0.701079 0.000000
0.335944 0.757613 0.000000
0.370573 0.837420 0.000000
0.406580 0.899950 0.000000
0.632168 0.932781 0.000000
1.000000 0.961150 0.000000
0.000000 0.022648 0.000000
0.543585 0.055766 0.000000
0.723470 0.120029 0.000000
0.756586 0.267270 0.000000
0.762808 0.378510 0.000000
0.713174 0.461304 0.000000
0.673230 0.527144 0.000000
0.613395 0.549939 0.000000
0.558559 0.552254 0.000000
0.500301 0.556144 0.000000
0.447714 0.558519 0.000000
0.396823 0.565217 0.000000
0.353542 0.572303 0.000000
0.313011 0.650560 0.000000
0.284553 0.698397 0.000000
0.324362 0.807141 0.000000
0.340269 0.896477 0.000000
0.566854 0.936395 0.000000
1.000000 0.966875 0.000000
0.000000 0.026985 0.000000
0.492593 0.059914 0.000000
0.699667 0.112124 0.000000
0.715510 0.231917 0.000000
0.747947 0.347391 0.000000
0.697165 0.407883 0.000000
0.660437 0.484151 0.000000
0.608033 0.496017 0.000000
0.556078 0.499703 0.000000
0.499961 0.499958 0.000000
0.443826 0.500287 0.000000
0.391894 0.503983 0.000000
0.339545 0.515881 0.000000
0.302892 0.592095 0.000000
0.252099 0.652591 0.000000
0.284467 0.767899 0.000000
0.300149 0.888044 0.000000
0.506841 0.939803 0.000000
1.000000 0.972148 0.000000
0.000000 0.032195 0.000000
0.432918 0.063096 0.000000
0.659454 0.103832 0.000000
0.675821 0.192944 0.000000
0.715357 0.301704 0.000000
0.687031 0.349251 0.000000
0.646524 0.427867 0.000000
0.603140 0.434816 0.000000
0.552306 0.441397 0.000000
0.499695 0.443929 0.000000
0.441464 0.447660 0.000000
0.386681 0.450066 0.000000
0.326776 0.472890 0.000000
0.286776 0.538687 0.000000
0.237205 0.621553 0.000000
0.243499 0.732856 0.000000
0.276360 0.880163 0.000000
0.456045 0.944087 0.000000
1.000000 0.976584 0.000000
0.000000 0.037906 0.000000
0.368025 0.066268 0.000000
0.593506 0.100339 0.000000
0.629485 0.162567 0.000000
0.664075 0.242514 0.000000
0.659078 0.298911 0.000000
0.636336 0.354140 0.000000
0.598454 0.375408 0.000000
0.549927 0.386734 0.000000
0.495982 0.391901 0.000000
0.434832 0.396827 0.000000
0.375356 0.401686 0.000000
0.313079 0.441431 0.000000
0.258720 0.491069 0.000000
0.227340 0.597117 0.000000
0.208224 0.711060 0.000000
0.257828 0.877622 0.000000
0.412221 0.949301 0.000000
1.000000 0.980204 0.000000
0.000000 0.044469 0.000000
0.310499 0.071042 0.000000
0.527168 0.101849 0.000000
0.581579 0.158648 0.000000
0.609925 0.216708 0.000000
0.607525 0.261672 0.000000
0.589699 0.299280 0.000000
0.558563 0.313293 0.000000
0.527169 0.326879 0.000000
0.484059 0.339518 0.000000
0.427796 0.353468 0.000000
0.354156 0.363703 0.000000
0.299301 0.410116 0.000000
0.225435 0.476154 0.000000
0.210357 0.579824 0.000000
0.185282 0.702921 0.000000
0.237800 0.883124 0.000000
0.378804 0.955189 0.000000
1.000000 0.982884 0.000000
0.000000 0.053131 0.000000
0.246650 0.078801 0.000000
0.400757 0.095626 0.000000
0.489348 0.126265 0.000000
0.514238 0.161542 0.000000
0.522425 0.191919 0.000000
0.523835 0.225388 0.000000
0.508868 0.258626 0.000000
0.461329 0.286735 0.000000
0.407932 0.302838 0.000000
0.349392 0.313025 0.000000
0.298902 0.340877 0.000000
0.261548 0.392531 0.000000
0.191989 0.477220 0.000000
0.181059 0.571694 0.000000
0.168881 0.703199 0.000000
0.213197 0.890597 0.000000
0.352437 0.961641 0.000000
1.000000 0.985045 0.000000
0.000000 0.063681 0.000000
0.165569 0.089002 0.000000
0.252737 0.107669 0.000000
0.347049 0.116260 0.000000
0.413879 0.141590 0.000000
0.428340 0.181067 0.000000
0.420235 0.210149 0.000000
0.403045 0.227384 0.000000
0.378565 0.237242 0.000000
0.347414 0.252042 0.000000
0.301739 0.284584 0.000000
0.242472 0.335941 0.000000
0.216617 0.390085 0.000000
0.161477 0.485881 0.000000
0.141819 0.586011 0.000000
0.166038 0.735212 0.000000
0.184308 0.901104 0.000000
0.335813 0.968206 0.000000
1.000000 0.986481 0.000000
0.000000 0.073092 0.000000
0.135487 0.110842 0.000000
0.192392 0.153298 0.000000
0.224408 0.166507 0.000000
0.264726 0.166175 0.000000
0.296774 0.168903 0.000000
0.296958 0.185279 0.000000
0.288917 0.208254 0.000000
0.267251 0.243374 0.000000
0.232209 0.284420 0.000000
0.192809 0.324381 0.000000
0.162510 0.370615 0.000000
0.158614 0.418359 0.000000
0.126041 0.510729 0.000000
0.116594 0.652763 0.000000
0.166272 0.775499 0.000000
0.149219 0.910736 0.000000
0.350697 0.976767 0.000000
1.000000 0.988713 0.000000
0.000000 0.108017 0.000000
0.040514 0.106012 0.000000
0.073967 0.119790 0.000000
0.089258 0.149137 0.000000
0.099022 0.184312 0.000000
0.109588 0.213222 0.000000
0.116977 0.237733 0.000000
0.122498 0.257807 0.000000
0.119990 0.276420 0.000000
0.112034 0.300195 0.000000
0.103566 0.340333 0.000000
0.100074 0.406504 0.000000
0.101582 0.473020 0.000000
0.095781 0.599154 0.000000
0.108055 0.747801 0.000000
0.152998 0.807670 0.000000
0.119953 0.925622 0.000000
0.379695 0.985492 0.000000
1.000000 0.991883 0.000000
0.000000 0.486675 0.000000
0.006603 0.427839 0.000000
0.014530 0.379730 0.000000
0.023252 0.350800 0.000000
0.031878 0.335498 0.000000
0.038415 0.352336 0.000000
0.044812 0.378768 0.000000
0.050675 0.411828 0.000000
0.055802 0.455550 0.000000
0.059920 0.506579 0.000000
0.063073 0.566837 0.000000
0.066322 0.631851 0.000000
0.071183 0.690838 0.000000
0.078904 0.752712 0.000000
0.088220 0.834526 0.000000
0.110475 0.864581 0.000000
0.105920 0.959408 0.000000
0.427955 0.993372 0.000000
1.000000 0.996632 0.000000
0.000000 1.000000 0.000000
0.003341 1.000000 0.000000
0.007916 1.000000 0.000000
0.011020 1.000000 0.000000
0.013154 1.000000 0.000000
0.014563 1.000000 0.000000
0.016658 1.000000 0.000000
0.019237 1.000000 0.000000
0.022759 1.000000 0.000000
0.027133 1.000000 0.000000
0.032442 1.000000 0.000000
0.038216 1.000000 0.000000
0.044833 1.000000 0.000000
0.052135 1.000000 0.000000
0.060887 1.000000 0.000000
0.073144 1.000000 0.000000
0.108001 1.000000 0.000000
0.487310 1.000000 0.000000
1.000000 1.000000 0.000000
0.000000 0.000000 0.054836
0.514416 0.000000 0.055548
0.888207 0.000000 0.055432
0.923006 0.000000 0.055766
0.937705 0.000000 0.055088
[...]
POINT_DATA 2527 
VECTORS pos float 
0.000000 0.000000 0.000000
0.513281 0.000000 0.000000
0.891705 0.000000 0.000000
0.926355 0.000000 0.000000
0.939010 0.000000 0.000000
0.947906 0.000000 0.000000
0.955189 0.000000 0.000000
0.961784 0.000000 0.000000
0.967484 0.000000 0.000000
0.972704 0.000000 0.000000
0.977074 0.000000 0.000000
0.980646 0.000000 0.000000
0.983307 0.000000 0.000000
0.985427 0.000000 0.000000
0.986731 0.000000 0.000000
0.988904 0.000000 0.000000
0.991990 0.000000 0.000000
0.996809 0.000000 0.000000
1.000000 0.000000 0.000000
0.000000 0.003288 0.000000
0.570748 0.006560 0.000000
0.893816 0.040563 0.000000
0.889357 0.135583 0.000000
0.911914 0.165439 0.000000
0.921104 0.246714 0.000000
0.928468 0.310024 0.000000
0.933481 0.367916 0.000000
0.936801 0.432401 0.000000
0.940036 0.492589 0.000000
0.944196 0.543915 0.000000
0.949292 0.588199 0.000000
0.955110 0.621414 0.000000
0.961513 0.647704 0.000000
0.968116 0.664261 0.000000
0.976757 0.649341 0.000000
0.985556 0.619886 0.000000
0.993334 0.570839 0.000000
1.000000 0.512415 0.000000
0.000000 0.007957 0.000000
0.619700 0.014448 0.000000
0.880061 0.074641 0.000000
0.846838 0.192246 0.000000
0.892297 0.252165 0.000000
0.904100 0.400551 0.000000
0.897922 0.527112 0.000000
0.899562 0.593208 0.000000
0.896286 0.659181 0.000000
0.888073 0.699646 0.000000
0.880019 0.723533 0.000000
0.877405 0.742068 0.000000
0.883018 0.762237 0.000000
0.890174 0.786854 0.000000
0.900473 0.815710 0.000000
0.910132 0.850935 0.000000
0.924850 0.880050 0.000000
0.959187 0.894016 0.000000
1.000000 0.890420 0.000000
0.000000 0.011052 0.000000
0.649811 0.023217 0.000000
0.850668 0.089933 0.000000
0.833957 0.224820 0.000000
0.883666 0.347395 0.000000
0.873919 0.488885 0.000000
0.840946 0.581737 0.000000
0.837309 0.629441 0.000000
0.807138 0.675744 0.000000
0.768155 0.715396 0.000000
0.732638 0.756517 0.000000
0.710840 0.791773 0.000000
0.702801 0.814728 0.000000
0.703016 0.831118 0.000000
0.735443 0.833877 0.000000
0.775934 0.833692 0.000000
0.808354 0.847365 0.000000
0.865087 0.890706 0.000000
1.000000 0.927921 0.000000
0.000000 0.013134 0.000000
0.664481 0.031815 0.000000
0.815612 0.099363 0.000000
0.833978 0.264745 0.000000
0.858241 0.414073 0.000000
0.838549 0.514053 0.000000
0.782975 0.610000 0.000000
0.757467 0.664056 0.000000
0.698368 0.715351 0.000000
0.652581 0.747957 0.000000
0.621615 0.762837 0.000000
0.596938 0.772530 0.000000
0.579948 0.789587 0.000000
0.571467 0.818982 0.000000
0.585946 0.858194 0.000000
0.653233 0.883210 0.000000
0.748650 0.891358 0.000000
0.834755 0.915288 0.000000
1.000000 0.946055 0.000000
0.000000 0.014404 0.000000
0.647326 0.038431 0.000000
0.786661 0.109651 0.000000
0.831057 0.296525 0.000000
0.819142 0.428236 0.000000
0.808057 0.522607 0.000000
0.738342 0.607417 0.000000
0.701108 0.659171 0.000000
0.650662 0.687005 0.000000
0.592129 0.697156 0.000000
0.538660 0.713137 0.000000
0.490915 0.741322 0.000000
0.476519 0.774573 0.000000
0.477253 0.808312 0.000000
0.486159 0.838515 0.000000
0.510748 0.874195 0.000000
0.598696 0.902960 0.000000
0.750885 0.920650 0.000000
1.000000 0.950290 0.000000
0.000000 0.016505 0.000000
0.621212 0.044902 0.000000
0.762058 0.117260 0.000000
0.814863 0.297169 0.000000
0.789662 0.420260 0.000000
0.774797 0.523502 0.000000
0.700459 0.589626 0.000000
0.645937 0.636367 0.000000
0.572234 0.646464 0.000000
0.515846 0.660487 0.000000
0.472813 0.673199 0.000000
0.441334 0.686801 0.000000
0.410118 0.700636 0.000000
0.392599 0.738270 0.000000
0.389970 0.783402 0.000000
0.418108 0.841063 0.000000
0.473367 0.898330 0.000000
0.691447 0.927248 0.000000
1.000000 0.954895 0.000000
0.000000 0.019133 0.000000
0.587824 0.050692 0.000000
0.742034 0.122765 0.000000
0.791854 0.289050 0.000000
0.772517 0.403138 0.000000
0.741367 0.508889 0.000000
0.686772 0.558598 0.000000
0.624577 0.598422 0.000000
0.565193 0.603138 0.000000
0.503997 0.608121 0.000000
0.450062 0.613330 0.000000
0.401647 0.624623 0.000000
0.363665 0.645979 0.000000
0.340799 0.701079 0.000000
0.335944 0.757613 0.000000
0.370573 0.837420 0.000000
0.406580 0.899950 0.000000
0.632168 0.932781 0.000000
1.000000 0.961150 0.000000
0.000000 0.022648 0.000000
0.543585 0.055766 0.000000
0.723470 0.120029 0.000000
0.756586 0.267270 0.000000
0.762808 0.378510 0.000000
0.713174 0.461304 0.000000
0.673230 0.527144 0.000000
0.613395 0.549939 0.000000
0.558559 0.552254 0.000000
0.500301 0.556144 0.000000
0.447714 0.558519 0.000000
0.396823 0.565217 0.000000
0.353542 0.572303 0.000000
0.313011 0.650560 0.000000
0.284553 0.698397 0.000000
0.324362 0.807141 0.000000
0.340269 0.896477 0.000000
0.566854 0.936395 0.000000
1.000000 0.966875 0.000000
0.000000 0.026985 0.000000
0.492593 0.059914 0.000000
0.699667 0.112124 0.000000
0.715510 0.231917 0.000000
0.747947 0.347391 0.000000
0.697165 0.407883 0.000000
0.660437 0.484151 0.000000
0.608033 0.496017 0.000000
0.556078 0.499703 0.000000
0.499961 0.499958 0.000000
0.443826 0.500287 0.000000
0.391894 0.503983 0.000000
0.339545 0.515881 0.000000
0.302892 0.592095 0.000000
0.252099 0.652591 0.000000
0.284467 0.767899 0.000000
0.300149 0.888044 0.000000
0.506841 0.939803 0.000000
1.000000 0.972148 0.000000
0.000000 0.032195 0.000000
0.432918 0.063096 0.000000
0.659454 0.103832 0.000000
0.675821 0.192944 0.000000
0.715357 0.301704 0.000000
0.687031 0.349251 0.000000
0.646524 0.427867 0.000000
0.603140 0.434816 0.000000
0.552306 0.441397 0.000000
0.499695 0.443929 0.000000
0.441464 0.447660 0.000000
0.386681 0.450066 0.000000
0.326776 0.472890 0.000000
0.286776 0.538687 0.000000
0.237205 0.621553 0.000000
0.243499 0.732856 0.000000
0.276360 0.880163 0.000000
0.456045 0.944087 0.000000
1.000000 0.976584 0.000000
0.000000 0.037906 0.000000
0.368025 0.066268 0.000000
0.593506 0.100339 0.000000
0.629485 0.162567 0.000000
0.664075 0.242514 0.000000
0.659078 0.298911 0.000000
0.636336 0.354140 0.000000
0.598454 0.375408 0.000000
0.549927 0.386734 0.000000
0.495982 0.391901 0.000000
0.434832 0.396827 0.000000
0.375356 0.401686 0.000000
0.313079 0.441431 0.000000
0.258720 0.491069 0.000000
0.227340 0.597117 0.000000
0.208224 0.711060 0.000000
0.257828 0.877622 0.000000
0.412221 0.949301 0.000000
1.000000 0.980204 0.000000
0.000000 0.044469 0.000000
0.310499 0.071042 0.000000
0.527168 0.101849 0.000000
0.581579 0.158648 0.000000
0.609925 0.216708 0.000000
0.607525 0.261672 0.000000
0.589699 0.299280 0.000000
0.558563 0.313293 0.000000
0.527169 0.326879 0.000000
0.484059 0.339518 0.000000
0.427796 0.353468 0.000000
0.354156 0.363703 0.000000
0.299301 0.410116 0.000000
0.225435 0.476154 0.000000
0.210357 0.579824 0.000000
0.185282 0.702921 0.000000
0.237800 0.883124 0.000000
0.378804 0.955189 0.000000
1.000000 0.982884 0.000000
0.000000 0.053131 0.000000
0.246650 0.078801 0.000000
0.400757 0.095626 0.000000
0.489348 0.126265 0.000000
0.514238 0.161542 0.000000
0.522425 0.191919 0.000000
0.523835 0.225388 0.000000
0.508868 0.258626 0.000000
0.461329 0.286735 0.000000
0.407932 0.302838 0.000000
0.349392 0.313025 0.000000
0.298902 0.340877 0.000000
0.261548 0.392531 0.000000
0.191989 0.477220 0.000000
0.181059 0.571694 0.000000
0.168881 0.703199 0.000000
0.213197 0.890597 0.000000
0.352437 0.961641 0.000000
1.000000 0.985045 0.000000
0.000000 0.063681 0.000000
0.165569 0.089002 0.000000
0.252737 0.107669 0.000000
0.347049 0.116260 0.000000
0.413879 0.141590 0.000000
0.428340 0.181067 0.000000
0.420235 0.210149 0.000000
0.403045 0.227384 0.000000
0.378565 0.237242 0.000000
0.347414 0.252042 0.000000
0.301739 0.284584 0.000000
0.242472 0.335941 0.000000
0.216617 0.390085 0.000000
0.161477 0.485881 0.000000
0.141819 0.586011 0.000000
0.166038 0.735212 0.000000
0.184308 0.901104 0.000000
0.335813 0.968206 0.000000
1.000000 0.986481 0.000000
0.000000 0.073092 0.000000
0.135487 0.110842 0.000000
0.192392 0.153298 0.000000
0.224408 0.166507 0.000000
0.264726 0.166175 0.000000
0.296774 0.168903 0.000000
0.296958 0.185279 0.000000
0.288917 0.208254 0.000000
0.267251 0.243374 0.000000
0.232209 0.284420 0.000000
0.192809 0.324381 0.000000
0.162510 0.370615 0.000000
0.158614 0.418359 0.000000
0.126041 0.510729 0.000000
0.116594 0.652763 0.000000
0.166272 0.775499 0.000000
0.149219 0.910736 0.000000
0.350697 0.976767 0.000000
1.000000 0.988713 0.000000
0.000000 0.108017 0.000000
0.040514 0.106012 0.000000
0.073967 0.119790 0.000000
0.089258 0.149137 0.000000
0.099022 0.184312 0.000000
0.109588 0.213222 0.000000
0.116977 0.237733 0.000000
0.122498 0.257807 0.000000
0.119990 0.276420 0.000000
0.112034 0.300195 0.000000
0.103566 0.340333 0.000000
0.100074 0.406504 0.000000
0.101582 0.473020 0.000000
0.095781 0.599154 0.000000
0.108055 0.747801 0.000000
0.152998 0.807670 0.000000
0.119953 0.925622 0.000000
0.379695 0.985492 0.000000
1.000000 0.991883 0.000000
0.000000 0.486675 0.000000
0.006603 0.427839 0.000000
0.014530 0.379730 0.000000
0.023252 0.350800 0.000000
0.031878 0.335498 0.000000
0.038415 0.352336 0.000000
0.044812 0.378768 0.000000
0.050675 0.411828 0.000000
0.055802 0.455550 0.000000
0.059920 0.506579 0.000000
0.063073 0.566837 0.000000
0.066322 0.631851 0.000000
0.071183 0.690838 0.000000
0.078904 0.752712 0.000000
0.088220 0.834526 0.000000
0.110475 0.864581 0.000000
0.105920 0.959408 0.000000
0.427955 0.993372 0.000000
1.000000 0.996632 0.000000
0.000000 1.000000 0.000000
0.003341 1.000000 0.000000
0.007916 1.000000 0.000000
0.011020 1.000000 0.000000
0.013154 1.000000 0.000000
0.014563 1.000000 0.000000
0.016658 1.000000 0.000000
0.019237 1.000000 0.000000
0.022759 1.000000 0.000000
0.027133 1.000000 0.000000
0.032442 1.000000 0.000000
0.038216 1.000000 0.000000
0.044833 1.000000 0.000000
0.052135 1.000000 0.000000
0.060887 1.000000 0.000000
0.073144 1.000000 0.000000
0.108001 1.000000 0.000000
0.487310 1.000000 0.000000
1.000000 1.000000 0.000000
0.000000 0.000000 0.054836
0.514416 0.000000 0.055548
0.888207 0.000000 0.055432
0.923006 0.000000 0.055766
0.937705 0.000000 0.055088
0.948118 0.000000 0.051495
0.956625 0.000000 0.054833
0.962989 0.000000 0.055205
0.968490 0.000000 0.055369
0.973558 0.000000 0.055476
0.977801 0.000000 0.055305
0.981253 0.000000 0.055128
0.983799 0.000000 0.054946
0.985835 0.000000 0.054884
0.987149 0.000000 0.054930
0.989277 0.000000 0.055048
0.992412 0.000000 0.055203
0.996991 0.000000 0.055537
1.000000 0.000000 0.057698
0.000000 0.003014 0.055272
0.571987 0.006788 0.055194
0.891976 0.039275 0.055242
0.888803 0.135641 0.055021
0.912182 0.164860 0.055413
0.921663 0.246854 0.054083
0.929304 0.310126 0.055258
0.933882 0.368583 0.055285
0.937019 0.433063 0.055103
0.940125 0.493359 0.055000
0.944198 0.544469 0.055032
0.949245 0.588114 0.055008
0.954998 0.621341 0.055075
0.961379 0.648044 0.055022
0.967945 0.664632 0.055062
0.976520 0.648864 0.054879
0.985258 0.619152 0.055094
0.993319 0.571874 0.055084
1.000000 0.517436 0.053970
0.000000 0.007640 0.055091
0.619661 0.014799 0.055066
0.879459 0.073543 0.055183
0.847185 0.192962 0.054969
0.892913 0.252194 0.055148
0.904396 0.400956 0.054866
0.898146 0.526724 0.054909
0.899519 0.593490 0.054964
0.896161 0.659510 0.054839
0.887723 0.699707 0.054962
0.879799 0.723491 0.054975
0.877322 0.742088 0.055067
0.882954 0.762164 0.055158
0.890283 0.786835 0.054908
0.900686 0.815495 0.055160
0.910467 0.850602 0.055084
0.926630 0.879385 0.055243
0.961049 0.891569 0.054895
1.000000 0.888270 0.059114
0.000000 0.010796 0.055075
0.649092 0.023490 0.054990
0.850649 0.089355 0.055009
0.833815 0.224854 0.054966
0.883966 0.346737 0.055072
0.873809 0.489190 0.055026
0.841385 0.581610 0.055027
0.837372 0.629416 0.054948
0.807040 0.675727 0.054991
0.767893 0.715572 0.055058
0.732805 0.756659 0.055014
0.711170 0.791805 0.054994
0.703174 0.814794 0.054903
0.703031 0.831275 0.055007
0.734898 0.834126 0.054809
0.774976 0.833829 0.054896
0.806884 0.847063 0.055042
0.864218 0.888467 0.054344
1.000000 0.922097 0.049401
0.000000 0.012943 0.055134
0.664765 0.032054 0.054909
0.815455 0.099230 0.055005
0.834084 0.264893 0.054949
0.858467 0.413908 0.054938
0.838555 0.514201 0.054951
0.783189 0.609877 0.054988
0.757400 0.664003 0.054995
0.698312 0.715477 0.054999
0.652505 0.747913 0.055035
0.621609 0.762731 0.055009
0.597019 0.772529 0.055060
0.579852 0.789694 0.055141
0.571651 0.819020 0.054966
0.586086 0.858585 0.055072
0.653586 0.884225 0.055304
0.747472 0.893308 0.055146
0.835183 0.910569 0.054010
1.000000 0.934166 0.055394
0.000000 0.014285 0.055077
0.647925 0.038605 0.054903
0.786725 0.109715 0.055073
0.831254 0.296929 0.055015
0.818875 0.428425 0.055025
0.808113 0.522469 0.055021
0.738204 0.607564 0.055048
0.701123 0.659235 0.055010
0.650644 0.687058 0.055010
0.592049 0.697116 0.054971
0.538686 0.713294 0.055002
0.491051 0.741316 0.054985
0.476132 0.774771 0.055016
0.477621 0.807953 0.054848
0.485635 0.838527 0.055076
0.511013 0.873692 0.054773
0.599290 0.904967 0.055310
0.753739 0.921879 0.055494
1.000000 0.946819 0.059413
0.000000 0.016347 0.055084
0.621368 0.044992 0.054923
0.762125 0.116965 0.055089
0.814788 0.296851 0.054949
0.789686 0.420010 0.054941
0.774772 0.523707 0.054974
0.700599 0.589627 0.054953
0.645950 0.636346 0.054997
0.572240 0.646394 0.054983
0.515919 0.660542 0.054990
0.472802 0.673107 0.054998
0.441398 0.686741 0.055013
0.410344 0.700592 0.055055
0.392436 0.738325 0.055005
0.390140 0.783181 0.055019
0.418462 0.841508 0.055127
0.473058 0.898034 0.054942
0.689293 0.929960 0.054648
1.000000 0.957079 0.055558
0.000000 0.018911 0.055079
0.587830 0.050777 0.054967
0.742062 0.122601 0.055058
0.791796 0.288891 0.054994
0.772548 0.402910 0.054986
0.741306 0.508999 0.054993
0.686740 0.558582 0.055004
0.624619 0.598349 0.054999
0.565187 0.603129 0.054989
0.504008 0.608112 0.055011
0.450123 0.613286 0.055019
0.401665 0.624601 0.055010
0.363659 0.645881 0.055028
0.340798 0.701180 0.054970
0.335979 0.757374 0.054987
0.370589 0.837472 0.054924
0.406504 0.899376 0.055011
0.631373 0.934294 0.054909
1.000000 0.963376 0.055087
0.000000 0.022366 0.055181
0.544080 0.055868 0.055028
0.723500 0.120076 0.055027
0.756639 0.267180 0.055031
0.762730 0.378340 0.055049
0.713268 0.461295 0.055042
0.673151 0.527153 0.055011
0.613311 0.549909 0.054967
0.558553 0.552317 0.055009
0.500303 0.556087 0.054980
0.447694 0.558553 0.054999
0.396883 0.565193 0.054990
0.353590 0.572280 0.055005
0.312935 0.650698 0.055005
0.284601 0.698309 0.055010
0.324267 0.807138 0.054974
0.340452 0.895937 0.054925
0.566808 0.937227 0.055134
1.000000 0.968809 0.054912
0.000000 0.026657 0.055282
0.493176 0.059989 0.055016
0.699685 0.112223 0.055051
0.715573 0.232020 0.055002
0.747886 0.347487 0.055010
0.697121 0.407995 0.054983
0.660484 0.484096 0.055017
0.608089 0.496020 0.055004
0.556099 0.499697 0.055021
0.500001 0.500032 0.055017
0.443889 0.500305 0.055004
0.391901 0.503975 0.055007
0.339523 0.515914 0.055006
0.302838 0.592114 0.054978
0.252107 0.652496 0.055024
0.284454 0.768028 0.055006
0.300318 0.887645 0.055074
0.506917 0.940244 0.055034
1.000000 0.973862 0.055077
0.000000 0.031769 0.055195
0.433323 0.063171 0.055072
0.659573 0.103937 0.054999
0.675766 0.192960 0.054984
0.715441 0.301686 0.055019
0.687090 0.349322 0.054953
0.646406 0.427757 0.055006
0.603141 0.434805 0.054987
0.552288 0.441443 0.054993
0.499691 0.443915 0.055034
0.441449 0.447686 0.054996
0.386673 0.450060 0.054988
0.326892 0.472863 0.055011
0.286748 0.538646 0.054984
0.237249 0.621662 0.054985
0.243362 0.732879 0.055001
0.276486 0.879699 0.055001
0.455863 0.944252 0.055013
1.000000 0.978069 0.055039
0.000000 0.037282 0.055231
0.368498 0.066358 0.055301
0.593454 0.100522 0.055060
0.629432 0.162598 0.055008
0.664031 0.242563 0.054959
0.659208 0.298865 0.055030
0.636374 0.354058 0.054990
0.598400 0.375404 0.055021
0.549921 0.386685 0.054964
0.496024 0.391897 0.054991
0.434809 0.396876 0.054983
0.375381 0.401608 0.054991
0.313297 0.441393 0.054991
0.258655 0.490969 0.055011
0.227516 0.596994 0.055012
0.208130 0.711113 0.054998
0.257922 0.877131 0.055083
0.412000 0.949230 0.054960
1.000000 0.981514 0.055051
0.000000 0.043639 0.055742
0.309651 0.071092 0.055521
0.526558 0.101935 0.054987
0.581632 0.158593 0.054985
0.609921 0.216782 0.054907
0.607458 0.261720 0.055027
0.589651 0.299446 0.054925
0.558569 0.313346 0.055022
0.527134 0.326885 0.055016
0.484030 0.339551 0.055036
0.427687 0.353581 0.055023
0.354038 0.363632 0.054939
0.299384 0.410352 0.055062
0.225266 0.476401 0.054962
0.210302 0.580014 0.055055
0.185177 0.703156 0.055027
0.237804 0.882858 0.055031
0.378774 0.954942 0.055002
1.000000 0.984078 0.055054
0.000000 0.051318 0.048142
0.247780 0.078577 0.053672
0.400980 0.095916 0.054703
0.489244 0.126287 0.055011
0.514148 0.161478 0.054946
0.522529 0.191915 0.055028
0.523643 0.225267 0.054945
0.509039 0.258640 0.054986
0.461393 0.286749 0.054958
0.407971 0.302834 0.055004
0.349369 0.312919 0.054958
0.298858 0.340797 0.055013
0.261732 0.392443 0.055011
0.191967 0.477488 0.054960
0.181121 0.571542 0.054991
0.168695 0.702993 0.055051
0.213207 0.890000 0.054948
0.352178 0.961322 0.054979
1.000000 0.986087 0.055050
0.000000 0.060441 0.057309
0.165005 0.087224 0.055795
0.252004 0.107344 0.055103
0.346523 0.116189 0.054839
0.413792 0.141594 0.054891
0.428427 0.181099 0.055037
0.420016 0.210306 0.055037
0.402968 0.227476 0.055013
0.378333 0.237260 0.055063
0.347500 0.252102 0.055021
0.301692 0.284589 0.054995
0.242594 0.335943 0.054979
0.216678 0.390011 0.054965
0.161544 0.485889 0.054970
0.141438 0.586164 0.054950
0.165899 0.734954 0.055141
0.184441 0.900447 0.055007
0.335541 0.967914 0.055042
1.000000 0.987343 0.054930
0.000000 0.076544 0.059509
0.135550 0.110677 0.055468
0.192605 0.152693 0.054909
0.224629 0.166182 0.055094
0.264821 0.165948 0.055090
0.296937 0.168721 0.055042
0.296802 0.185205 0.055042
0.288882 0.208145 0.054991
0.267162 0.243375 0.055001
0.231983 0.284455 0.054982
0.192927 0.324254 0.055002
0.162590 0.370590 0.055003
0.158593 0.418467 0.054980
0.126289 0.510781 0.054861
0.115959 0.653321 0.054971
0.166341 0.775405 0.055042
0.149046 0.910547 0.054983
0.351228 0.976544 0.054940
1.000000 0.989418 0.054886
0.000000 0.111023 0.052792
0.039585 0.107592 0.054622
0.073938 0.120283 0.055006
0.089643 0.149103 0.055010
0.099486 0.184408 0.055080
0.109925 0.213181 0.055020
0.117134 0.237825 0.055019
0.122785 0.257914 0.055063
0.120195 0.276450 0.054988
0.112269 0.300264 0.055027
0.103943 0.340476 0.054874
0.100546 0.406513 0.055005
0.101944 0.473393 0.054940
0.095701 0.599074 0.054561
0.107165 0.747537 0.055158
0.152918 0.807284 0.054936
0.120221 0.926308 0.054983
0.380389 0.985270 0.055047
1.000000 0.992478 0.054793
0.000000 0.485540 0.056044
0.006754 0.428377 0.055231
0.014752 0.380591 0.054996
0.023481 0.350973 0.054977
0.032057 0.335463 0.054985
0.038622 0.352153 0.055009
0.044998 0.378860 0.055000
0.050802 0.411944 0.054992
0.055856 0.455874 0.055026
0.059975 0.506738 0.055169
0.063118 0.566677 0.055213
0.066268 0.631472 0.055276
0.070888 0.690260 0.055386
0.078435 0.753067 0.054038
0.087652 0.834827 0.055306
0.110987 0.864348 0.055476
0.107526 0.960470 0.054212
0.428109 0.993280 0.055345
1.000000 0.997010 0.054601
0.000000 1.000000 0.053481
0.003005 1.000000 0.054757
0.007648 1.000000 0.054954
0.010761 1.000000 0.055088
0.012894 1.000000 0.055194
0.014180 1.000000 0.055170
0.016231 1.000000 0.055042
0.018781 1.000000 0.055007
0.022247 1.000000 0.054993
0.026521 1.000000 0.054921
0.031641 1.000000 0.054714
0.037164 1.000000 0.054727
0.043514 1.000000 0.055056
0.051691 1.000000 0.052351
0.061825 1.000000 0.056516
0.076393 1.000000 0.058609
0.110917 1.000000 0.052965
0.485586 1.000000 0.055662
1.000000 1.000000 0.053712
0.000000 0.000000 0.110782
0.512248 0.000000 0.109659
0.892093 0.000000 0.111951
0.927142 0.000000 0.107634
0.941726 0.000000 0.109402
0.948826 0.000000 0.107090
0.954777 0.000000 0.110434
0.961323 0.000000 0.110470
0.967102 0.000000 0.110334
0.972503 0.000000 0.110245
0.977007 0.000000 0.110373
0.980611 0.000000 0.110290
0.983264 0.000000 0.110305
0.985383 0.000000 0.110292
0.986764 0.000000 0.110289
0.988895 0.000000 0.110450
0.992002 0.000000 0.110857