# vtk DataFile Version 2.0
Mesh for Fierro
ASCII 
DATASET UNSTRUCTURED_GRID

POINTS 2527 float
0.000000 0.000000 0.000000
0.166845 0.000000 0.000000
0.314399 0.000000 0.000000
0.437916 0.000000 0.000000
0.536381 0.000000 0.000000
0.612033 0.000000 0.000000
0.673499 0.000000 0.000000
0.724600 0.000000 0.000000
0.767553 0.000000 0.000000
0.803200 0.000000 0.000000
0.834197 0.000000 0.000000
0.861560 0.000000 0.000000
0.885447 0.000000 0.000000
0.907926 0.000000 0.000000
0.928076 0.000000 0.000000
0.947368 0.000000 0.000000
0.964928 0.000000 0.000000
0.982993 0.000000 0.000000
1.000000 0.000000 0.000000
0.000000 0.017027 0.000000
0.165975 0.018801 0.000000
0.312620 0.021996 0.000000
0.435358 0.028400 0.000000
0.533099 0.035783 0.000000
0.608576 0.045215 0.000000
0.669819 0.055589 0.000000
0.719946 0.067325 0.000000
0.762172 0.080335 0.000000
0.797107 0.093385 0.000000
0.827795 0.105855 0.000000
0.854772 0.118476 0.000000
0.879064 0.130897 0.000000
0.901445 0.141223 0.000000
0.922451 0.149884 0.000000
0.942829 0.157241 0.000000
0.962259 0.161903 0.000000
0.981194 0.165976 0.000000
1.000000 0.166797 0.000000
0.000000 0.035053 0.000000
0.161900 0.037745 0.000000
0.306435 0.044254 0.000000
0.426715 0.056457 0.000000
0.523115 0.070447 0.000000
0.597719 0.088573 0.000000
0.658423 0.108444 0.000000
0.707994 0.131033 0.000000
0.749294 0.155330 0.000000
0.783442 0.179477 0.000000
0.813514 0.203861 0.000000
0.840831 0.226593 0.000000
0.865211 0.249433 0.000000
0.888610 0.268531 0.000000
0.911248 0.284472 0.000000
0.933728 0.297627 0.000000
0.955742 0.306432 0.000000
0.978009 0.312620 0.000000
1.000000 0.314416 0.000000
0.000000 0.052612 0.000000
0.157238 0.057170 0.000000
0.297627 0.066273 0.000000
0.414715 0.083693 0.000000
0.508605 0.103710 0.000000
0.580872 0.129439 0.000000
0.639681 0.157638 0.000000
0.687000 0.188668 0.000000
0.726008 0.222733 0.000000
0.758433 0.254858 0.000000
0.786436 0.288270 0.000000
0.813980 0.319058 0.000000
0.838766 0.350109 0.000000
0.864204 0.375399 0.000000
0.889602 0.396909 0.000000
0.916306 0.414716 0.000000
0.943544 0.426716 0.000000
0.971597 0.435358 0.000000
1.000000 0.437908 0.000000
0.000000 0.071932 0.000000
0.149908 0.077551 0.000000
0.284466 0.088750 0.000000
0.396913 0.110399 0.000000
0.488589 0.135684 0.000000
0.557918 0.167681 0.000000
0.614559 0.202214 0.000000
0.659782 0.240173 0.000000
0.696120 0.281369 0.000000
0.727132 0.321448 0.000000
0.754663 0.360248 0.000000
0.781741 0.396613 0.000000
0.806552 0.433876 0.000000
0.834872 0.463525 0.000000
0.864316 0.488596 0.000000
0.896289 0.508608 0.000000
0.929553 0.523113 0.000000
0.964219 0.533099 0.000000
1.000000 0.536387 0.000000
0.000000 0.092086 0.000000
0.141226 0.098552 0.000000
0.268524 0.111392 0.000000
0.375395 0.135795 0.000000
0.463522 0.165129 0.000000
0.529476 0.202012 0.000000
0.584071 0.240810 0.000000
0.625893 0.284164 0.000000
0.658401 0.330333 0.000000
0.688287 0.374580 0.000000
0.714385 0.418772 0.000000
0.741072 0.457983 0.000000
0.766490 0.496788 0.000000
0.797987 0.529471 0.000000
0.832320 0.557914 0.000000
0.870562 0.580868 0.000000
0.911427 0.597721 0.000000
0.954783 0.608575 0.000000
1.000000 0.612028 0.000000
0.000000 0.114560 0.000000
0.130920 0.120936 0.000000
0.249437 0.134790 0.000000
0.350113 0.161235 0.000000
0.433871 0.193446 0.000000
0.496785 0.233509 0.000000
0.550070 0.276122 0.000000
0.587744 0.323390 0.000000
0.617150 0.373498 0.000000
0.645751 0.420534 0.000000
0.670096 0.467949 0.000000
0.697162 0.510067 0.000000
0.723877 0.550067 0.000000
0.759192 0.584075 0.000000
0.797787 0.614559 0.000000
0.842361 0.639682 0.000000
0.891555 0.658422 0.000000
0.944414 0.669818 0.000000
1.000000 0.673502 0.000000
0.000000 0.138454 0.000000
0.118487 0.145227 0.000000
0.226600 0.159170 0.000000
0.319061 0.186019 0.000000
0.396611 0.218259 0.000000
0.457984 0.258929 0.000000
0.510067 0.302838 0.000000
0.544397 0.350246 0.000000
0.572000 0.400433 0.000000
0.598894 0.450036 0.000000
0.622855 0.498703 0.000000
0.649753 0.544398 0.000000
0.676610 0.587744 0.000000
0.715835 0.625892 0.000000
0.759826 0.659784 0.000000
0.811332 0.686999 0.000000
0.868968 0.707994 0.000000
0.932673 0.719947 0.000000
1.000000 0.724601 0.000000
0.000000 0.165796 0.000000
0.105862 0.172207 0.000000
0.203861 0.186485 0.000000
0.288271 0.213566 0.000000
0.360248 0.245335 0.000000
0.418771 0.285616 0.000000
0.467948 0.329902 0.000000
0.498706 0.377147 0.000000
0.525511 0.425971 0.000000
0.550206 0.475953 0.000000
0.574029 0.525513 0.000000
0.599568 0.571998 0.000000
0.626500 0.617150 0.000000
0.669667 0.658402 0.000000
0.718631 0.696118 0.000000
0.777265 0.726009 0.000000
0.844670 0.749292 0.000000
0.919666 0.762172 0.000000
1.000000 0.767559 0.000000
0.000000 0.196797 0.000000
0.093378 0.202895 0.000000
0.179478 0.216557 0.000000
0.254856 0.241567 0.000000
0.321450 0.272867 0.000000
0.374579 0.311714 0.000000
0.420533 0.354249 0.000000
0.450040 0.401108 0.000000
0.475950 0.449797 0.000000
0.499999 0.499994 0.000000
0.524051 0.550209 0.000000
0.549961 0.598895 0.000000
0.579468 0.645750 0.000000
0.625421 0.688286 0.000000
0.678550 0.727133 0.000000
0.745145 0.758432 0.000000
0.820522 0.783445 0.000000
0.906615 0.797104 0.000000
1.000000 0.803200 0.000000
0.000000 0.232445 0.000000
0.080339 0.237828 0.000000
0.155331 0.250707 0.000000
0.222734 0.273992 0.000000
0.281368 0.303881 0.000000
0.330334 0.341598 0.000000
0.373498 0.382851 0.000000
0.400433 0.428001 0.000000
0.425970 0.474488 0.000000
0.449798 0.524047 0.000000
0.474488 0.574034 0.000000
0.501295 0.622852 0.000000
0.532049 0.670099 0.000000
0.581231 0.714384 0.000000
0.639748 0.754666 0.000000
0.711731 0.786433 0.000000
0.796142 0.813519 0.000000
0.894152 0.827793 0.000000
1.000000 0.834192 0.000000
0.000000 0.275401 0.000000
0.067323 0.280055 0.000000
0.131032 0.292006 0.000000
0.188669 0.313000 0.000000
0.240173 0.340218 0.000000
0.284164 0.374107 0.000000
0.323391 0.412256 0.000000
0.350247 0.455601 0.000000
0.377148 0.501294 0.000000
0.401101 0.549965 0.000000
0.428001 0.599566 0.000000
0.455602 0.649753 0.000000
0.489933 0.697162 0.000000
0.542018 0.741070 0.000000
0.603389 0.781743 0.000000
0.680937 0.813980 0.000000
0.773401 0.840829 0.000000
0.881527 0.854776 0.000000
1.000000 0.861577 0.000000
0.000000 0.326499 0.000000
0.055592 0.330182 0.000000
0.108451 0.341579 0.000000
0.157634 0.360319 0.000000
0.202211 0.385441 0.000000
0.240812 0.415926 0.000000
0.276122 0.449933 0.000000
0.302838 0.489934 0.000000
0.329900 0.532050 0.000000
0.354251 0.579464 0.000000
0.382851 0.626503 0.000000
0.412256 0.676609 0.000000
0.449928 0.723879 0.000000
0.503217 0.766489 0.000000
0.566123 0.806552 0.000000
0.649883 0.838765 0.000000
0.750560 0.865217 0.000000
0.869086 0.879038 0.000000
1.000000 0.885324 0.000000
0.000000 0.387968 0.000000
0.045214 0.391423 0.000000
0.088567 0.402277 0.000000
0.129442 0.419130 0.000000
0.167684 0.442082 0.000000
0.202011 0.470525 0.000000
0.233512 0.503211 0.000000
0.258929 0.542016 0.000000
0.285617 0.581231 0.000000
0.311714 0.625422 0.000000
0.341598 0.669666 0.000000
0.374107 0.715836 0.000000
0.415927 0.759189 0.000000
0.470525 0.797988 0.000000
0.536481 0.834873 0.000000
0.624607 0.864207 0.000000
0.731477 0.888600 0.000000
0.858776 0.901466 0.000000
1.000000 0.907964 0.000000
0.000000 0.463619 0.000000
0.035786 0.466902 0.000000
0.070455 0.476888 0.000000
0.103705 0.491395 0.000000
0.135676 0.511411 0.000000
0.165129 0.536473 0.000000
0.193448 0.566128 0.000000
0.218259 0.603391 0.000000
0.245333 0.639749 0.000000
0.272867 0.678549 0.000000
0.303881 0.718632 0.000000
0.340218 0.759827 0.000000
0.385442 0.797789 0.000000
0.442081 0.832316 0.000000
0.511410 0.864321 0.000000
0.603086 0.889596 0.000000
0.715538 0.911263 0.000000
0.850079 0.922417 0.000000
1.000000 0.927958 0.000000
0.000000 0.562088 0.000000
0.028397 0.564638 0.000000
0.056447 0.573282 0.000000
0.083697 0.585283 0.000000
0.110406 0.603087 0.000000
0.135792 0.624604 0.000000
0.161236 0.649889 0.000000
0.186018 0.680936 0.000000
0.213569 0.711731 0.000000
0.241568 0.745145 0.000000
0.273992 0.777266 0.000000
0.313000 0.811331 0.000000
0.360320 0.842364 0.000000
0.419131 0.870559 0.000000
0.491396 0.896294 0.000000
0.585282 0.916304 0.000000
0.702380 0.933728 0.000000
0.842747 0.942846 0.000000
1.000000 0.947418 0.000000
0.000000 0.685590 0.000000
0.022005 0.687389 0.000000
0.044261 0.693574 0.000000
0.066271 0.702379 0.000000
0.088734 0.715540 0.000000
0.111403 0.731472 0.000000
0.134776 0.750572 0.000000
0.159175 0.773402 0.000000
0.186482 0.796140 0.000000
0.216555 0.820522 0.000000
0.250706 0.844669 0.000000
0.292007 0.868969 0.000000
0.341578 0.891549 0.000000
0.402277 0.911432 0.000000
0.476887 0.929546 0.000000
0.573281 0.943553 0.000000
0.693573 0.955739 0.000000
0.838078 0.962239 0.000000
1.000000 0.964891 0.000000
0.000000 0.833184 0.000000
0.018781 0.833998 0.000000
0.037757 0.838079 0.000000
0.057158 0.842753 0.000000
0.077586 0.850079 0.000000
0.098527 0.858778 0.000000
0.120968 0.869064 0.000000
0.145223 0.881515 0.000000
0.172206 0.894138 0.000000
0.202895 0.906619 0.000000
0.237830 0.919662 0.000000
0.280053 0.932676 0.000000
0.330183 0.944411 0.000000
0.391423 0.954784 0.000000
0.466903 0.964217 0.000000
0.564639 0.971599 0.000000
0.687388 0.978001 0.000000
0.833998 0.981216 0.000000
1.000000 0.983098 0.000000
0.000000 1.000000 0.000000
0.016884 1.000000 0.000000
0.035112 1.000000 0.000000
0.052591 1.000000 0.000000
0.072079 1.000000 0.000000
0.092016 1.000000 0.000000
0.114656 1.000000 0.000000
0.138445 1.000000 0.000000
0.165798 1.000000 0.000000
0.196811 1.000000 0.000000
0.232439 1.000000 0.000000
0.275402 1.000000 0.000000
0.326495 1.000000 0.000000
0.387972 1.000000 0.000000
0.463613 1.000000 0.000000
0.562092 1.000000 0.000000
0.685581 1.000000 0.000000
0.833210 1.000000 0.000000
1.000000 1.000000 0.000000
0.000000 0.000000 0.055004
0.166831 0.000000 0.055003
0.314403 0.000000 0.055000
0.437914 0.000000 0.055000
0.536382 0.000000 0.055000
[...]
POINT_DATA 2527 
VECTORS pos float 
0.000000 0.000000 0.000000
0.166845 0.000000 0.000000
0.314399 0.000000 0.000000
0.437916 0.000000 0.000000
0.536381 0.000000 0.000000
0.612033 0.000000 0.000000
0.673499 0.000000 0.000000
0.724600 0.000000 0.000000
0.767553 0.000000 0.000000
0.803200 0.000000 0.000000
0.834197 0.000000 0.000000
0.861560 0.000000 0.000000
0.885447 0.000000 0.000000
0.907926 0.000000 0.000000
0.928076 0.000000 0.000000
0.947368 0.000000 0.000000
0.964928 0.000000 0.000000
0.982993 0.000000 0.000000
1.000000 0.000000 0.000000
0.000000 0.017027 0.000000
0.165975 0.018801 0.000000
0.312620 0.021996 0.000000
0.435358 0.028400 0.000000
0.533099 0.035783 0.000000
0.608576 0.045215 0.000000
0.669819 0.055589 0.000000
0.719946 0.067325 0.000000
0.762172 0.080335 0.000000
0.797107 0.093385 0.000000
0.827795 0.105855 0.000000
0.854772 0.118476 0.000000
0.879064 0.130897 0.000000
0.901445 0.141223 0.000000
0.922451 0.149884 0.000000
0.942829 0.157241 0.000000
0.962259 0.161903 0.000000
0.981194 0.165976 0.000000
1.000000 0.166797 0.000000
0.000000 0.035053 0.000000
0.161900 0.037745 0.000000
0.306435 0.044254 0.000000
0.426715 0.056457 0.000000
0.523115 0.070447 0.000000
0.597719 0.088573 0.000000
0.658423 0.108444 0.000000
0.707994 0.131033 0.000000
0.749294 0.155330 0.000000
0.783442 0.179477 0.000000
0.813514 0.203861 0.000000
0.840831 0.226593 0.000000
0.865211 0.249433 0.000000
0.888610 0.268531 0.000000
0.911248 0.284472 0.000000
0.933728 0.297627 0.000000
0.955742 0.306432 0.000000
0.978009 0.312620 0.000000
1.000000 0.314416 0.000000
0.000000 0.052612 0.000000
0.157238 0.057170 0.000000
0.297627 0.066273 0.000000
0.414715 0.083693 0.000000
0.508605 0.103710 0.000000
0.580872 0.129439 0.000000
0.639681 0.157638 0.000000
0.687000 0.188668 0.000000
0.726008 0.222733 0.000000
0.758433 0.254858 0.000000
0.786436 0.288270 0.000000
0.813980 0.319058 0.000000
0.838766 0.350109 0.000000
0.864204 0.375399 0.000000
0.889602 0.396909 0.000000
0.916306 0.414716 0.000000
0.943544 0.426716 0.000000
0.971597 0.435358 0.000000
1.000000 0.437908 0.000000
0.000000 0.071932 0.000000
0.149908 0.077551 0.000000
0.284466 0.088750 0.000000
0.396913 0.110399 0.000000
0.488589 0.135684 0.000000
0.557918 0.167681 0.000000
0.614559 0.202214 0.000000
0.659782 0.240173 0.000000
0.696120 0.281369 0.000000
0.727132 0.321448 0.000000
0.754663 0.360248 0.000000
0.781741 0.396613 0.000000
0.806552 0.433876 0.000000
0.834872 0.463525 0.000000
0.864316 0.488596 0.000000
0.896289 0.508608 0.000000
0.929553 0.523113 0.000000
0.964219 0.533099 0.000000
1.000000 0.536387 0.000000
0.000000 0.092086 0.000000
0.141226 0.098552 0.000000
0.268524 0.111392 0.000000
0.375395 0.135795 0.000000
0.463522 0.165129 0.000000
0.529476 0.202012 0.000000
0.584071 0.240810 0.000000
0.625893 0.284164 0.000000
0.658401 0.330333 0.000000
0.688287 0.374580 0.000000
0.714385 0.418772 0.000000
0.741072 0.457983 0.000000
0.766490 0.496788 0.000000
0.797987 0.529471 0.000000
0.832320 0.557914 0.000000
0.870562 0.580868 0.000000
0.911427 0.597721 0.000000
0.954783 0.608575 0.000000
1.000000 0.612028 0.000000
0.000000 0.114560 0.000000
0.130920 0.120936 0.000000
0.249437 0.134790 0.000000
0.350113 0.161235 0.000000
0.433871 0.193446 0.000000
0.496785 0.233509 0.000000
0.550070 0.276122 0.000000
0.587744 0.323390 0.000000
0.617150 0.373498 0.000000
0.645751 0.420534 0.000000
0.670096 0.467949 0.000000
0.697162 0.510067 0.000000
0.723877 0.550067 0.000000
0.759192 0.584075 0.000000
0.797787 0.614559 0.000000
0.842361 0.639682 0.000000
0.891555 0.658422 0.000000
0.944414 0.669818 0.000000
1.000000 0.673502 0.000000
0.000000 0.138454 0.000000
0.118487 0.145227 0.000000
0.226600 0.159170 0.000000
0.319061 0.186019 0.000000
0.396611 0.218259 0.000000
0.457984 0.258929 0.000000
0.510067 0.302838 0.000000
0.544397 0.350246 0.000000
0.572000 0.400433 0.000000
0.598894 0.450036 0.000000
0.622855 0.498703 0.000000
0.649753 0.544398 0.000000
0.676610 0.587744 0.000000
0.715835 0.625892 0.000000
0.759826 0.659784 0.000000
0.811332 0.686999 0.000000
0.868968 0.707994 0.000000
0.932673 0.719947 0.000000
1.000000 0.724601 0.000000
0.000000 0.165796 0.000000
0.105862 0.172207 0.000000
0.203861 0.186485 0.000000
0.288271 0.213566 0.000000
0.360248 0.245335 0.000000
0.418771 0.285616 0.000000
0.467948 0.329902 0.000000
0.498706 0.377147 0.000000
0.525511 0.425971 0.000000
0.550206 0.475953 0.000000
0.574029 0.525513 0.000000
0.599568 0.571998 0.000000
0.626500 0.617150 0.000000
0.669667 0.658402 0.000000
0.718631 0.696118 0.000000
0.777265 0.726009 0.000000
0.844670 0.749292 0.000000
0.919666 0.762172 0.000000
1.000000 0.767559 0.000000
0.000000 0.196797 0.000000
0.093378 0.202895 0.000000
0.179478 0.216557 0.000000
0.254856 0.241567 0.000000
0.321450 0.272867 0.000000
0.374579 0.311714 0.000000
0.420533 0.354249 0.000000
0.450040 0.401108 0.000000
0.475950 0.449797 0.000000
0.499999 0.499994 0.000000
0.524051 0.550209 0.000000
0.549961 0.598895 0.000000
0.579468 0.645750 0.000000
0.625421 0.688286 0.000000
0.678550 0.727133 0.000000
0.745145 0.758432 0.000000
0.820522 0.783445 0.000000
0.906615 0.797104 0.000000
1.000000 0.803200 0.000000
0.000000 0.232445 0.000000
0.080339 0.237828 0.000000
0.155331 0.250707 0.000000
0.222734 0.273992 0.000000
0.281368 0.303881 0.000000
0.330334 0.341598 0.000000
0.373498 0.382851 0.000000
0.400433 0.428001 0.000000
0.425970 0.474488 0.000000
0.449798 0.524047 0.000000
0.474488 0.574034 0.000000
0.501295 0.622852 0.000000
0.532049 0.670099 0.000000
0.581231 0.714384 0.000000
0.639748 0.754666 0.000000
0.711731 0.786433 0.000000
0.796142 0.813519 0.000000
0.894152 0.827793 0.000000
1.000000 0.834192 0.000000
0.000000 0.275401 0.000000
0.067323 0.280055 0.000000
0.131032 0.292006 0.000000
0.188669 0.313000 0.000000
0.240173 0.340218 0.000000
0.284164 0.374107 0.000000
0.323391 0.412256 0.000000
0.350247 0.455601 0.000000
0.377148 0.501294 0.000000
0.401101 0.549965 0.000000
0.428001 0.599566 0.000000
0.455602 0.649753 0.000000
0.489933 0.697162 0.000000
0.542018 0.741070 0.000000
0.603389 0.781743 0.000000
0.680937 0.813980 0.000000
0.773401 0.840829 0.000000
0.881527 0.854776 0.000000
1.000000 0.861577 0.000000
0.000000 0.326499 0.000000
0.055592 0.330182 0.000000
0.108451 0.341579 0.000000
0.157634 0.360319 0.000000
0.202211 0.385441 0.000000
0.240812 0.415926 0.000000
0.276122 0.449933 0.000000
0.302838 0.489934 0.000000
0.329900 0.532050 0.000000
0.354251 0.579464 0.000000
0.382851 0.626503 0.000000
0.412256 0.676609 0.000000
0.449928 0.723879 0.000000
0.503217 0.766489 0.000000
0.566123 0.806552 0.000000
0.649883 0.838765 0.000000
0.750560 0.865217 0.000000
0.869086 0.879038 0.000000
1.000000 0.885324 0.000000
0.000000 0.387968 0.000000
0.045214 0.391423 0.000000
0.088567 0.402277 0.000000
0.129442 0.419130 0.000000
0.167684 0.442082 0.000000
0.202011 0.470525 0.000000
0.233512 0.503211 0.000000
0.258929 0.542016 0.000000
0.285617 0.581231 0.000000
0.311714 0.625422 0.000000
0.341598 0.669666 0.000000
0.374107 0.715836 0.000000
0.415927 0.759189 0.000000
0.470525 0.797988 0.000000
0.536481 0.834873 0.000000
0.624607 0.864207 0.000000
0.731477 0.888600 0.000000
0.858776 0.901466 0.000000
1.000000 0.907964 0.000000
0.000000 0.463619 0.000000
0.035786 0.466902 0.000000
0.070455 0.476888 0.000000
0.103705 0.491395 0.000000
0.135676 0.511411 0.000000
0.165129 0.536473 0.000000
0.193448 0.566128 0.000000
0.218259 0.603391 0.000000
0.245333 0.639749 0.000000
0.272867 0.678549 0.000000
0.303881 0.718632 0.000000
0.340218 0.759827 0.000000
0.385442 0.797789 0.000000
0.442081 0.832316 0.000000
0.511410 0.864321 0.000000
0.603086 0.889596 0.000000
0.715538 0.911263 0.000000
0.850079 0.922417 0.000000
1.000000 0.927958 0.000000
0.000000 0.562088 0.000000
0.028397 0.564638 0.000000
0.056447 0.573282 0.000000
0.083697 0.585283 0.000000
0.110406 0.603087 0.000000
0.135792 0.624604 0.000000
0.161236 0.649889 0.000000
0.186018 0.680936 0.000000
0.213569 0.711731 0.000000
0.241568 0.745145 0.000000
0.273992 0.777266 0.000000
0.313000 0.811331 0.000000
0.360320 0.842364 0.000000
0.419131 0.870559 0.000000
0.491396 0.896294 0.000000
0.585282 0.916304 0.000000
0.702380 0.933728 0.000000
0.842747 0.942846 0.000000
1.000000 0.947418 0.000000
0.000000 0.685590 0.000000
0.022005 0.687389 0.000000
0.044261 0.693574 0.000000
0.066271 0.702379 0.000000
0.088734 0.715540 0.000000
0.111403 0.731472 0.000000
0.134776 0.750572 0.000000
0.159175 0.773402 0.000000
0.186482 0.796140 0.000000
0.216555 0.820522 0.000000
0.250706 0.844669 0.000000
0.292007 0.868969 0.000000
0.341578 0.891549 0.000000
0.402277 0.911432 0.000000
0.476887 0.929546 0.000000
0.573281 0.943553 0.000000
0.693573 0.955739 0.000000
0.838078 0.962239 0.000000
1.000000 0.964891 0.000000
0.000000 0.833184 0.000000
0.018781 0.833998 0.000000
0.037757 0.838079 0.000000
0.057158 0.842753 0.000000
0.077586 0.850079 0.000000
0.098527 0.858778 0.000000
0.120968 0.869064 0.000000
0.145223 0.881515 0.000000
0.172206 0.894138 0.000000
0.202895 0.906619 0.000000
0.237830 0.919662 0.000000
0.280053 0.932676 0.000000
0.330183 0.944411 0.000000
0.391423 0.954784 0.000000
0.466903 0.964217 0.000000
0.564639 0.971599 0.000000
0.687388 0.978001 0.000000
0.833998 0.981216 0.000000
1.000000 0.983098 0.000000
0.000000 1.000000 0.000000
0.016884 1.000000 0.000000
0.035112 1.000000 0.000000
0.052591 1.000000 0.000000
0.072079 1.000000 0.000000
0.092016 1.000000 0.000000
0.114656 1.000000 0.000000
0.138445 1.000000 0.000000
0.165798 1.000000 0.000000
0.196811 1.000000 0.000000
0.232439 1.000000 0.000000
0.275402 1.000000 0.000000
0.326495 1.000000 0.000000
0.387972 1.000000 0.000000
0.463613 1.000000 0.000000
0.562092 1.000000 0.000000
0.685581 1.000000 0.000000
0.833210 1.000000 0.000000
1.000000 1.000000 0.000000
0.000000 0.000000 0.055004
0.166831 0.000000 0.055003
0.314403 0.000000 0.055000
0.437914 0.000000 0.055000
0.536382 0.000000 0.055000
0.612031 0.000000 0.054999
0.673502 0.000000 0.055003
0.724597 0.000000 0.054997
0.767560 0.000000 0.055004
0.803197 0.000000 0.054998
0.834197 0.000000 0.054995
0.861548 0.000000 0.054987
0.885365 0.000000 0.055008
0.907917 0.000000 0.055030
0.927937 0.000000 0.054998
0.947464 0.000000 0.054969
0.965006 0.000000 0.054976
0.983021 0.000000 0.055015
1.000000 0.000000 0.055022
0.000000 0.016965 0.055005
0.165974 0.018804 0.055000
0.312621 0.021991 0.055000
0.435358 0.028403 0.055000
0.533099 0.035781 0.055000
0.608576 0.045218 0.055000
0.669818 0.055587 0.055000
0.719947 0.067325 0.055000
0.762171 0.080335 0.055000
0.797108 0.093384 0.054999
0.827793 0.105851 0.055002
0.854777 0.118474 0.055002
0.879035 0.130941 0.054998
0.901460 0.141239 0.055001
0.922440 0.149928 0.055001
0.942830 0.157242 0.054999
0.962255 0.161909 0.054998
0.981200 0.165975 0.055000
1.000000 0.166857 0.055005
0.000000 0.034983 0.054992
0.161911 0.037742 0.055000
0.306429 0.044252 0.055001
0.426717 0.056458 0.054999
0.523114 0.070445 0.055001
0.597720 0.088573 0.054999
0.658423 0.108444 0.055001
0.707993 0.131033 0.055000
0.749294 0.155329 0.055000
0.783443 0.179480 0.055001
0.813518 0.203870 0.055001
0.840826 0.226583 0.054999
0.865221 0.249435 0.054998
0.888598 0.268518 0.054999
0.911260 0.284457 0.054999
0.933727 0.297620 0.055002
0.955747 0.306430 0.055001
0.978005 0.312619 0.054999
1.000000 0.314393 0.054997
0.000000 0.052525 0.054967
0.157248 0.057172 0.055000
0.297618 0.066275 0.055001
0.414719 0.083691 0.054999
0.508606 0.103712 0.055001
0.580871 0.129438 0.054999
0.639680 0.157638 0.055001
0.687000 0.188669 0.055000
0.726008 0.222733 0.055000
0.758433 0.254858 0.055000
0.786433 0.288260 0.054999
0.813982 0.319059 0.055000
0.838759 0.350119 0.055000
0.864210 0.375396 0.055001
0.889595 0.396917 0.055000
0.916308 0.414716 0.054998
0.943543 0.426717 0.054998
0.971599 0.435358 0.055001
1.000000 0.437919 0.055002
0.000000 0.072078 0.054991
0.149921 0.077555 0.055000
0.284458 0.088745 0.055000
0.396915 0.110403 0.055000
0.488589 0.135679 0.055000
0.557920 0.167683 0.055001
0.614557 0.202213 0.055000
0.659782 0.240173 0.055000
0.696119 0.281370 0.055000
0.727132 0.321448 0.055000
0.754665 0.360256 0.055001
0.781739 0.396611 0.055000
0.806558 0.433875 0.055001
0.834868 0.463515 0.055001
0.864322 0.488588 0.055000
0.896290 0.508604 0.055001
0.929554 0.523114 0.055001
0.964217 0.533098 0.054999
1.000000 0.536379 0.054999
0.000000 0.092090 0.055026
0.141243 0.098544 0.055001
0.268521 0.111400 0.055000
0.375400 0.135791 0.055001
0.463515 0.165131 0.055000
0.529476 0.202012 0.055000
0.584071 0.240811 0.055000
0.625892 0.284164 0.055000
0.658402 0.330333 0.055000
0.688286 0.374580 0.055000
0.714384 0.418768 0.055000
0.741071 0.457982 0.054999
0.766491 0.496787 0.055000
0.797988 0.529478 0.055000
0.832317 0.557921 0.055001
0.870561 0.580872 0.054999
0.911427 0.597721 0.054999
0.954783 0.608576 0.055001
1.000000 0.612034 0.055001
0.000000 0.114629 0.055007
0.130929 0.120963 0.055000
0.249424 0.134777 0.055000
0.350122 0.161243 0.055001
0.433876 0.193440 0.055001
0.496788 0.233511 0.055000
0.550067 0.276120 0.055000
0.587743 0.323391 0.055000
0.617150 0.373498 0.055000
0.645751 0.420534 0.055000
0.670098 0.467952 0.055000
0.697162 0.510067 0.055000
0.723877 0.550067 0.055001
0.759189 0.584071 0.054999
0.797788 0.614556 0.054998
0.842362 0.639681 0.055001
0.891556 0.658422 0.055001
0.944413 0.669819 0.054999
1.000000 0.673496 0.054998
0.000000 0.138445 0.054988
0.118472 0.145225 0.054999
0.226587 0.159174 0.055000
0.319059 0.186017 0.055000
0.396610 0.218262 0.055000
0.457982 0.258928 0.055000
0.510067 0.302839 0.055000
0.544398 0.350246 0.055000
0.571999 0.400434 0.055000
0.598895 0.450034 0.055000
0.622855 0.498703 0.055000
0.649753 0.544399 0.055000
0.676610 0.587744 0.055000
0.715836 0.625892 0.055000
0.759827 0.659783 0.055000
0.811331 0.686999 0.055000
0.868967 0.707995 0.054999
0.932672 0.719946 0.055000
1.000000 0.724603 0.055001
0.000000 0.165803 0.054993
0.105850 0.172206 0.054997
0.203864 0.186483 0.055002
0.288265 0.213566 0.054999
0.360252 0.245335 0.055001
0.418770 0.285615 0.055000
0.467949 0.329902 0.055000
0.498706 0.377147 0.055000
0.525511 0.425965 0.055000
0.550213 0.475948 0.055000
0.574034 0.525514 0.055000
0.599568 0.571999 0.055000
0.626501 0.617149 0.055000
0.669667 0.658402 0.055000
0.718631 0.696118 0.055000
0.777267 0.726009 0.055000
0.844671 0.749292 0.055000
0.919667 0.762174 0.054999
1.000000 0.767555 0.054999
0.000000 0.196803 0.055000
0.093386 0.202892 0.055001
0.179479 0.216557 0.055000
0.254858 0.241566 0.055000
0.321448 0.272868 0.055000
0.374580 0.311714 0.055000
0.420532 0.354250 0.055000
0.450038 0.401105 0.055000
0.475950 0.449788 0.055000
0.499997 0.500000 0.055000
0.524051 0.550213 0.055000
0.549963 0.598896 0.055000
0.579467 0.645750 0.055000
0.625420 0.688286 0.055000
0.678551 0.727133 0.055000
0.745143 0.758432 0.055000
0.820520 0.783445 0.055000
0.906613 0.797106 0.055001
1.000000 0.803209 0.054997
0.000000 0.232441 0.055002
0.080334 0.237828 0.055000
0.155329 0.250707 0.055000
0.222733 0.273993 0.055000
0.281370 0.303880 0.055000
0.330333 0.341598 0.055000
0.373498 0.382851 0.055000
0.400433 0.428000 0.055000
0.425964 0.474491 0.055000
0.449792 0.524050 0.055000
0.474488 0.574035 0.055000
0.501295 0.622855 0.055000
0.532048 0.670098 0.055000
0.581232 0.714385 0.055000
0.639745 0.754664 0.055000
0.711738 0.786434 0.055000
0.796134 0.813518 0.054999
0.894154 0.827795 0.054999
1.000000 0.834190 0.055006
0.000000 0.275403 0.054998
0.067325 0.280053 0.054999
0.131033 0.292005 0.055000
0.188670 0.313000 0.055000
0.240173 0.340219 0.055000
0.284164 0.374107 0.055000
0.323390 0.412257 0.055000
0.350247 0.455601 0.055000
0.377145 0.501294 0.055000
0.401102 0.549964 0.055000
0.428001 0.599566 0.055000
0.455601 0.649754 0.055000
0.489933 0.697163 0.054999
0.542018 0.741070 0.055001
0.603387 0.781742 0.054999
0.680939 0.813979 0.055001
0.773415 0.840828 0.054999
0.881530 0.854776 0.054999
1.000000 0.861576 0.055004
0.000000 0.326503 0.055002
0.055590 0.330180 0.055002
0.108450 0.341576 0.055000
0.157631 0.360317 0.055000
0.202211 0.385441 0.055001
0.240810 0.415925 0.055000
0.276128 0.449932 0.054999
0.302837 0.489933 0.055000
0.329902 0.532049 0.054999
0.354250 0.579467 0.055000
0.382851 0.626502 0.055000
0.412256 0.676609 0.055000
0.449933 0.723872 0.054999
0.503213 0.766497 0.055001
0.566126 0.806548 0.054999
0.649896 0.838772 0.055001
0.750559 0.865207 0.055000
0.869088 0.879053 0.055001
1.000000 0.885422 0.055005
0.000000 0.387963 0.054999
0.045215 0.391426 0.054999
0.088566 0.402281 0.055001
0.129445 0.419131 0.055000
0.167685 0.442080 0.055000
0.202013 0.470525 0.055000
0.233504 0.503213 0.055000
0.258930 0.542017 0.055001
0.285616 0.581233 0.055000
0.311714 0.625420 0.055000
0.341597 0.669667 0.055000
0.374109 0.715836 0.055000
0.415924 0.759190 0.055000
0.470527 0.797987 0.055000
0.536469 0.834868 0.055000
0.624611 0.864206 0.054999
0.731462 0.888606 0.055001
0.858796 0.901454 0.054998
1.000000 0.907869 0.054987
0.000000 0.463627 0.055002
0.035787 0.466896 0.055001
0.070454 0.476884 0.055000
0.103704 0.491391 0.054999
0.135674 0.511411 0.055000
0.165131 0.536471 0.055000
0.193452 0.566128 0.055000
0.218258 0.603388 0.055000
0.245335 0.639745 0.055000
0.272866 0.678551 0.055000
0.303882 0.718631 0.055000
0.340217 0.759827 0.055000
0.385442 0.797789 0.055000
0.442081 0.832316 0.055000
0.511411 0.864323 0.055000
0.603088 0.889596 0.055000
0.715536 0.911260 0.055000
0.850092 0.922429 0.055000
1.000000 0.927983 0.055000
0.000000 0.562079 0.054998
0.028399 0.564644 0.054999
0.056444 0.573287 0.055000
0.083700 0.585288 0.055001
0.110406 0.603089 0.055000
0.135794 0.624613 0.055000
0.161228 0.649894 0.055000
0.186020 0.680937 0.055000
0.213567 0.711738 0.055000
0.241569 0.745143 0.055001
0.273991 0.777267 0.055000
0.313001 0.811330 0.055000
0.360318 0.842368 0.055000
0.419131 0.870556 0.054999
0.491393 0.896296 0.055001
0.585286 0.916300 0.055000
0.702371 0.933735 0.055000
0.842767 0.942839 0.055002
1.000000 0.947496 0.055015
0.000000 0.685609 0.055004
0.022004 0.687376 0.055001
0.044265 0.693559 0.055000
0.066265 0.702368 0.054999
0.088736 0.715534 0.055000
0.111394 0.731464 0.055000
0.134793 0.750556 0.055002
0.159174 0.773412 0.055001
0.186483 0.796134 0.055000
0.216554 0.820521 0.054999
0.250708 0.844670 0.055000
0.292005 0.868968 0.055000
0.341577 0.891550 0.055001
0.402280 0.911432 0.055000
0.476885 0.929547 0.055000
0.573285 0.943554 0.055000
0.693563 0.955736 0.055000
0.838104 0.962244 0.054998
1.000000 0.964995 0.055005
0.000000 0.833135 0.054997
0.018779 0.834030 0.055001
0.037758 0.838114 0.054999
0.057159 0.842780 0.055003
0.077574 0.850090 0.055000
0.098542 0.858798 0.055000
0.120950 0.869062 0.055003
0.145223 0.881527 0.054997
0.172205 0.894151 0.054996
0.202895 0.906614 0.055002
0.237827 0.919665 0.055000
0.280054 0.932674 0.055000
0.330180 0.944412 0.055001
0.391427 0.954784 0.054999
0.466897 0.964215 0.055001
0.564644 0.971599 0.054999
0.687375 0.977998 0.055001
0.834030 0.981219 0.055002
1.000000 0.983027 0.054994
0.000000 1.000000 0.054953
0.016983 1.000000 0.054990
0.035013 1.000000 0.055016
0.052533 1.000000 0.055015
0.071991 1.000000 0.055000
0.092116 1.000000 0.054986
0.114586 1.000000 0.055002
0.138421 1.000000 0.055001
0.165811 1.000000 0.054999
0.196794 1.000000 0.055002
0.232448 1.000000 0.054998
0.275396 1.000000 0.055002
0.326504 1.000000 0.054997
0.387966 1.000000 0.055002
0.463624 1.000000 0.054999
0.562083 1.000000 0.055000
0.685603 1.000000 0.055001
0.833154 1.000000 0.054997
1.000000 1.000000 0.054980
0.000000 0.000000 0.110029
0.166837 0.000000 0.110008
0.314400 0.000000 0.109996
0.437915 0.000000 0.110002
0.536376 0.000000 0.109999
0.612034 0.000000 0.110000
0.673496 0.000000 0.110001
0.724603 0.000000 0.109999
0.767554 0.000000 0.110001
0.803202 0.000000 0.109997
0.834198 0.000000 0.110010
0.861570 0.000000 0.110006
0.885449 0.000000 0.110006
0.907874 0.000000 0.109986
0.928023 0.000000 0.109972
0.947473 0.000000 0.110003
0.964970 0.000000 0.109999