# vtk DataFile Version 2.0
Mesh for Fierro
ASCII 
DATASET UNSTRUCTURED_GRID

POINTS 2527 float
0.000000 0.000000 0.000000
0.083081 0.000000 0.000000
0.163945 0.000000 0.000000
0.242676 0.000000 0.000000
0.318174 0.000000 0.000000
0.389715 0.000000 0.000000
0.456389 0.000000 0.000000
0.517183 0.000000 0.000000
0.573969 0.000000 0.000000
0.626641 0.000000 0.000000
0.675754 0.000000 0.000000
0.722219 0.000000 0.000000
0.765690 0.000000 0.000000
0.808516 0.000000 0.000000
0.848950 0.000000 0.000000
0.888551 0.000000 0.000000
0.926491 0.000000 0.000000
0.963640 0.000000 0.000000
1.000000 0.000000 0.000000
0.000000 0.036360 0.000000
0.082725 0.036795 0.000000
0.163326 0.037792 0.000000
0.241749 0.039579 0.000000
0.316999 0.041884 0.000000
0.388445 0.044883 0.000000
0.454767 0.048174 0.000000
0.515423 0.051895 0.000000
0.572189 0.055943 0.000000
0.624740 0.059808 0.000000
0.673993 0.063836 0.000000
0.720405 0.067741 0.000000
0.763890 0.071450 0.000000
0.806808 0.074761 0.000000
0.847567 0.077611 0.000000
0.887421 0.079934 0.000000
0.925682 0.081677 0.000000
0.963205 0.082725 0.000000
1.000000 0.083081 0.000000
0.000000 0.073509 0.000000
0.081677 0.074318 0.000000
0.161214 0.076255 0.000000
0.238696 0.079662 0.000000
0.313096 0.084096 0.000000
0.383886 0.089825 0.000000
0.449994 0.096148 0.000000
0.510063 0.103448 0.000000
0.566312 0.111187 0.000000
0.619023 0.118795 0.000000
0.668218 0.126523 0.000000
0.714990 0.134075 0.000000
0.758945 0.141461 0.000000
0.802467 0.147826 0.000000
0.843836 0.153299 0.000000
0.884646 0.157881 0.000000
0.923745 0.161214 0.000000
0.962207 0.163326 0.000000
1.000000 0.163945 0.000000
0.000000 0.111449 0.000000
0.079934 0.112579 0.000000
0.157881 0.115354 0.000000
0.233817 0.120224 0.000000
0.306788 0.126581 0.000000
0.376718 0.134748 0.000000
0.442094 0.143990 0.000000
0.501246 0.154692 0.000000
0.557061 0.165776 0.000000
0.609580 0.176885 0.000000
0.658969 0.188189 0.000000
0.706058 0.199069 0.000000
0.750482 0.209830 0.000000
0.794974 0.219170 0.000000
0.837508 0.227129 0.000000
0.879776 0.233817 0.000000
0.920338 0.238696 0.000000
0.960421 0.241749 0.000000
1.000000 0.242676 0.000000
0.000000 0.151050 0.000000
0.077611 0.152433 0.000000
0.153299 0.156164 0.000000
0.227129 0.162492 0.000000
0.298301 0.170783 0.000000
0.366620 0.180994 0.000000
0.430981 0.192743 0.000000
0.489022 0.206159 0.000000
0.544117 0.220052 0.000000
0.596662 0.234420 0.000000
0.646274 0.248474 0.000000
0.693875 0.262442 0.000000
0.739332 0.276234 0.000000
0.785056 0.288151 0.000000
0.829217 0.298301 0.000000
0.873419 0.306788 0.000000
0.915904 0.313096 0.000000
0.958116 0.316999 0.000000
1.000000 0.318174 0.000000
0.000000 0.191484 0.000000
0.074761 0.193192 0.000000
0.147826 0.197533 0.000000
0.219170 0.205026 0.000000
0.288151 0.214944 0.000000
0.354725 0.227532 0.000000
0.417452 0.241635 0.000000
0.474404 0.257594 0.000000
0.528430 0.274365 0.000000
0.580952 0.291252 0.000000
0.631069 0.308569 0.000000
0.678661 0.324837 0.000000
0.725045 0.340706 0.000000
0.772468 0.354725 0.000000
0.819006 0.366620 0.000000
0.865252 0.376718 0.000000
0.910175 0.383886 0.000000
0.955117 0.388445 0.000000
1.000000 0.389715 0.000000
0.000000 0.234310 0.000000
0.071450 0.236110 0.000000
0.141461 0.241055 0.000000
0.209830 0.249518 0.000000
0.276234 0.260668 0.000000
0.340706 0.274955 0.000000
0.402498 0.290798 0.000000
0.457692 0.308826 0.000000
0.510608 0.328132 0.000000
0.562964 0.346920 0.000000
0.613445 0.366533 0.000000
0.661750 0.385254 0.000000
0.709202 0.402498 0.000000
0.758365 0.417452 0.000000
0.807257 0.430981 0.000000
0.856010 0.442094 0.000000
0.903852 0.449994 0.000000
0.951826 0.454767 0.000000
1.000000 0.456389 0.000000
0.000000 0.277781 0.000000
0.067741 0.279595 0.000000
0.134075 0.285010 0.000000
0.199069 0.293942 0.000000
0.262442 0.306125 0.000000
0.324837 0.321339 0.000000
0.385254 0.338250 0.000000
0.438736 0.357409 0.000000
0.490712 0.377471 0.000000
0.543047 0.398044 0.000000
0.593512 0.418580 0.000000
0.642591 0.438736 0.000000
0.691174 0.457692 0.000000
0.742406 0.474404 0.000000
0.793841 0.489022 0.000000
0.845308 0.501246 0.000000
0.896552 0.510063 0.000000
0.948105 0.515423 0.000000
1.000000 0.517183 0.000000
0.000000 0.324246 0.000000
0.063836 0.326007 0.000000
0.126523 0.331782 0.000000
0.188189 0.341031 0.000000
0.248474 0.353726 0.000000
0.308569 0.368931 0.000000
0.366533 0.386555 0.000000
0.418580 0.406488 0.000000
0.470045 0.426886 0.000000
0.521750 0.448448 0.000000
0.573114 0.470045 0.000000
0.622529 0.490712 0.000000
0.671868 0.510608 0.000000
0.725635 0.528430 0.000000
0.779948 0.544117 0.000000
0.834224 0.557061 0.000000
0.888813 0.566312 0.000000
0.944056 0.572189 0.000000
1.000000 0.573969 0.000000
0.000000 0.373359 0.000000
0.059808 0.375260 0.000000
0.118795 0.380977 0.000000
0.176885 0.390420 0.000000
0.234420 0.403338 0.000000
0.291252 0.419048 0.000000
0.346920 0.437036 0.000000
0.398044 0.456953 0.000000
0.448448 0.478250 0.000000
0.500000 0.500000 0.000000
0.551552 0.521750 0.000000
0.601956 0.543047 0.000000
0.653080 0.562964 0.000000
0.708748 0.580952 0.000000
0.765580 0.596662 0.000000
0.823115 0.609580 0.000000
0.881205 0.619023 0.000000
0.940192 0.624740 0.000000
1.000000 0.626641 0.000000
0.000000 0.426031 0.000000
0.055943 0.427811 0.000000
0.111187 0.433688 0.000000
0.165776 0.442939 0.000000
0.220052 0.455883 0.000000
0.274365 0.471570 0.000000
0.328132 0.489392 0.000000
0.377471 0.509288 0.000000
0.426886 0.529955 0.000000
0.478250 0.551552 0.000000
0.529955 0.573114 0.000000
0.581420 0.593512 0.000000
0.633467 0.613445 0.000000
0.691431 0.631069 0.000000
0.751526 0.646274 0.000000
0.811811 0.658969 0.000000
0.873477 0.668218 0.000000
0.936164 0.673993 0.000000
1.000000 0.675754 0.000000
0.000000 0.482817 0.000000
0.051895 0.484577 0.000000
0.103448 0.489937 0.000000
0.154692 0.498754 0.000000
0.206159 0.510978 0.000000
0.257594 0.525596 0.000000
0.308826 0.542308 0.000000
0.357409 0.561264 0.000000
0.406488 0.581420 0.000000
0.456953 0.601956 0.000000
0.509288 0.622529 0.000000
0.561264 0.642591 0.000000
0.614746 0.661750 0.000000
0.675163 0.678661 0.000000
0.737558 0.693875 0.000000
0.800931 0.706058 0.000000
0.865925 0.714990 0.000000
0.932259 0.720405 0.000000
1.000000 0.722219 0.000000
0.000000 0.543611 0.000000
0.048174 0.545233 0.000000
0.096148 0.550006 0.000000
0.143990 0.557906 0.000000
0.192743 0.569019 0.000000
0.241635 0.582548 0.000000
0.290798 0.597502 0.000000
0.338250 0.614746 0.000000
0.386555 0.633467 0.000000
0.437036 0.653080 0.000000
0.489392 0.671868 0.000000
0.542308 0.691174 0.000000
0.597502 0.709202 0.000000
0.659294 0.725045 0.000000
0.723766 0.739332 0.000000
0.790170 0.750482 0.000000
0.858539 0.758945 0.000000
0.928549 0.763890 0.000000
1.000000 0.765690 0.000000
0.000000 0.610285 0.000000
0.044883 0.611555 0.000000
0.089825 0.616114 0.000000
0.134748 0.623282 0.000000
0.180994 0.633380 0.000000
0.227532 0.645275 0.000000
0.274955 0.659294 0.000000
0.321339 0.675163 0.000000
0.368931 0.691431 0.000000
0.419048 0.708748 0.000000
0.471570 0.725635 0.000000
0.525596 0.742406 0.000000
0.582548 0.758365 0.000000
0.645275 0.772468 0.000000
0.711849 0.785056 0.000000
0.780830 0.794974 0.000000
0.852174 0.802467 0.000000
0.925238 0.806808 0.000000
1.000000 0.808516 0.000000
0.000000 0.681826 0.000000
0.041884 0.683001 0.000000
0.084096 0.686904 0.000000
0.126581 0.693212 0.000000
0.170783 0.701699 0.000000
0.214944 0.711849 0.000000
0.260668 0.723766 0.000000
0.306125 0.737558 0.000000
0.353726 0.751526 0.000000
0.403338 0.765580 0.000000
0.455883 0.779948 0.000000
0.510978 0.793841 0.000000
0.569019 0.807257 0.000000
0.633380 0.819006 0.000000
0.701699 0.829217 0.000000
0.772871 0.837508 0.000000
0.846701 0.843836 0.000000
0.922389 0.847567 0.000000
1.000000 0.848950 0.000000
0.000000 0.757324 0.000000
0.039579 0.758251 0.000000
0.079662 0.761304 0.000000
0.120224 0.766183 0.000000
0.162492 0.772871 0.000000
0.205026 0.780830 0.000000
0.249518 0.790170 0.000000
0.293942 0.800931 0.000000
0.341031 0.811811 0.000000
0.390420 0.823115 0.000000
0.442939 0.834224 0.000000
0.498754 0.845308 0.000000
0.557906 0.856010 0.000000
0.623282 0.865252 0.000000
0.693212 0.873419 0.000000
0.766183 0.879776 0.000000
0.842119 0.884646 0.000000
0.920066 0.887420 0.000000
1.000000 0.888551 0.000000
0.000000 0.836055 0.000000
0.037792 0.836674 0.000000
0.076255 0.838786 0.000000
0.115354 0.842119 0.000000
0.156164 0.846701 0.000000
0.197533 0.852174 0.000000
0.241055 0.858539 0.000000
0.285010 0.865925 0.000000
0.331782 0.873477 0.000000
0.380977 0.881205 0.000000
0.433688 0.888813 0.000000
0.489937 0.896552 0.000000
0.550006 0.903852 0.000000
0.616114 0.910175 0.000000
0.686904 0.915904 0.000000
0.761304 0.920338 0.000000
0.838786 0.923745 0.000000
0.918322 0.925682 0.000000
1.000000 0.926491 0.000000
0.000000 0.916919 0.000000
0.036795 0.917274 0.000000
0.074318 0.918322 0.000000
0.112580 0.920066 0.000000
0.152433 0.922389 0.000000
0.193192 0.925238 0.000000
0.236110 0.928549 0.000000
0.279595 0.932259 0.000000
0.326007 0.936164 0.000000
0.375260 0.940192 0.000000
0.427811 0.944056 0.000000
0.484577 0.948105 0.000000
0.545233 0.951826 0.000000
0.611555 0.955117 0.000000
0.683001 0.958116 0.000000
0.758251 0.960421 0.000000
0.836674 0.962207 0.000000
0.917274 0.963205 0.000000
1.000000 0.963640 0.000000
0.000000 1.000000 0.000000
0.036360 1.000000 0.000000
0.073509 1.000000 0.000000
0.111449 1.000000 0.000000
0.151050 1.000000 0.000000
0.191484 1.000000 0.000000
0.234310 1.000000 0.000000
0.277781 1.000000 0.000000
0.324246 1.000000 0.000000
0.373359 1.000000 0.000000
0.426031 1.000000 0.000000
0.482817 1.000000 0.000000
0.543611 1.000000 0.000000
0.610285 1.000000 0.000000
0.681826 1.000000 0.000000
0.757324 1.000000 0.000000
0.836055 1.000000 0.000000
0.916919 1.000000 0.000000
1.000000 1.000000 0.000000
0.000000 0.000000 0.055000
0.083081 0.000000 0.055000
0.163945 0.000000 0.055000
0.242676 0.000000 0.055000
0.318174 0.000000 0.055000
[...]
POINT_DATA 2527 
VECTORS pos float 
0.000000 0.000000 0.000000
0.083081 0.000000 0.000000
0.163945 0.000000 0.000000
0.242676 0.000000 0.000000
0.318174 0.000000 0.000000
0.389715 0.000000 0.000000
0.456389 0.000000 0.000000
0.517183 0.000000 0.000000
0.573969 0.000000 0.000000
0.626641 0.000000 0.000000
0.675754 0.000000 0.000000
0.722219 0.000000 0.000000
0.765690 0.000000 0.000000
0.808516 0.000000 0.000000
0.848950 0.000000 0.000000
0.888551 0.000000 0.000000
0.926491 0.000000 0.000000
0.963640 0.000000 0.000000
1.000000 0.000000 0.000000
0.000000 0.036360 0.000000
0.082725 0.036795 0.000000
0.163326 0.037792 0.000000
0.241749 0.039579 0.000000
0.316999 0.041884 0.000000
0.388445 0.044883 0.000000
0.454767 0.048174 0.000000
0.515423 0.051895 0.000000
0.572189 0.055943 0.000000
0.624740 0.059808 0.000000
0.673993 0.063836 0.000000
0.720405 0.067741 0.000000
0.763890 0.071450 0.000000
0.806808 0.074761 0.000000
0.847567 0.077611 0.000000
0.887421 0.079934 0.000000
0.925682 0.081677 0.000000
0.963205 0.082725 0.000000
1.000000 0.083081 0.000000
0.000000 0.073509 0.000000
0.081677 0.074318 0.000000
0.161214 0.076255 0.000000
0.238696 0.079662 0.000000
0.313096 0.084096 0.000000
0.383886 0.089825 0.000000
0.449994 0.096148 0.000000
0.510063 0.103448 0.000000
0.566312 0.111187 0.000000
0.619023 0.118795 0.000000
0.668218 0.126523 0.000000
0.714990 0.134075 0.000000
0.758945 0.141461 0.000000
0.802467 0.147826 0.000000
0.843836 0.153299 0.000000
0.884646 0.157881 0.000000
0.923745 0.161214 0.000000
0.962207 0.163326 0.000000
1.000000 0.163945 0.000000
0.000000 0.111449 0.000000
0.079934 0.112579 0.000000
0.157881 0.115354 0.000000
0.233817 0.120224 0.000000
0.306788 0.126581 0.000000
0.376718 0.134748 0.000000
0.442094 0.143990 0.000000
0.501246 0.154692 0.000000
0.557061 0.165776 0.000000
0.609580 0.176885 0.000000
0.658969 0.188189 0.000000
0.706058 0.199069 0.000000
0.750482 0.209830 0.000000
0.794974 0.219170 0.000000
0.837508 0.227129 0.000000
0.879776 0.233817 0.000000
0.920338 0.238696 0.000000
0.960421 0.241749 0.000000
1.000000 0.242676 0.000000
0.000000 0.151050 0.000000
0.077611 0.152433 0.000000
0.153299 0.156164 0.000000
0.227129 0.162492 0.000000
0.298301 0.170783 0.000000
0.366620 0.180994 0.000000
0.430981 0.192743 0.000000
0.489022 0.206159 0.000000
0.544117 0.220052 0.000000
0.596662 0.234420 0.000000
0.646274 0.248474 0.000000
0.693875 0.262442 0.000000
0.739332 0.276234 0.000000
0.785056 0.288151 0.000000
0.829217 0.298301 0.000000
0.873419 0.306788 0.000000
0.915904 0.313096 0.000000
0.958116 0.316999 0.000000
1.000000 0.318174 0.000000
0.000000 0.191484 0.000000
0.074761 0.193192 0.000000
0.147826 0.197533 0.000000
0.219170 0.205026 0.000000
0.288151 0.214944 0.000000
0.354725 0.227532 0.000000
0.417452 0.241635 0.000000
0.474404 0.257594 0.000000
0.528430 0.274365 0.000000
0.580952 0.291252 0.000000
0.631069 0.308569 0.000000
0.678661 0.324837 0.000000
0.725045 0.340706 0.000000
0.772468 0.354725 0.000000
0.819006 0.366620 0.000000
0.865252 0.376718 0.000000
0.910175 0.383886 0.000000
0.955117 0.388445 0.000000
1.000000 0.389715 0.000000
0.000000 0.234310 0.000000
0.071450 0.236110 0.000000
0.141461 0.241055 0.000000
0.209830 0.249518 0.000000
0.276234 0.260668 0.000000
0.340706 0.274955 0.000000
0.402498 0.290798 0.000000
0.457692 0.308826 0.000000
0.510608 0.328132 0.000000
0.562964 0.346920 0.000000
0.613445 0.366533 0.000000
0.661750 0.385254 0.000000
0.709202 0.402498 0.000000
0.758365 0.417452 0.000000
0.807257 0.430981 0.000000
0.856010 0.442094 0.000000
0.903852 0.449994 0.000000
0.951826 0.454767 0.000000
1.000000 0.456389 0.000000
0.000000 0.277781 0.000000
0.067741 0.279595 0.000000
0.134075 0.285010 0.000000
0.199069 0.293942 0.000000
0.262442 0.306125 0.000000
0.324837 0.321339 0.000000
0.385254 0.338250 0.000000
0.438736 0.357409 0.000000
0.490712 0.377471 0.000000
0.543047 0.398044 0.000000
0.593512 0.418580 0.000000
0.642591 0.438736 0.000000
0.691174 0.457692 0.000000
0.742406 0.474404 0.000000
0.793841 0.489022 0.000000
0.845308 0.501246 0.000000
0.896552 0.510063 0.000000
0.948105 0.515423 0.000000
1.000000 0.517183 0.000000
0.000000 0.324246 0.000000
0.063836 0.326007 0.000000
0.126523 0.331782 0.000000
0.188189 0.341031 0.000000
0.248474 0.353726 0.000000
0.308569 0.368931 0.000000
0.366533 0.386555 0.000000
0.418580 0.406488 0.000000
0.470045 0.426886 0.000000
0.521750 0.448448 0.000000
0.573114 0.470045 0.000000
0.622529 0.490712 0.000000
0.671868 0.510608 0.000000
0.725635 0.528430 0.000000
0.779948 0.544117 0.000000
0.834224 0.557061 0.000000
0.888813 0.566312 0.000000
0.944056 0.572189 0.000000
1.000000 0.573969 0.000000
0.000000 0.373359 0.000000
0.059808 0.375260 0.000000
0.118795 0.380977 0.000000
0.176885 0.390420 0.000000
0.234420 0.403338 0.000000
0.291252 0.419048 0.000000
0.346920 0.437036 0.000000
0.398044 0.456953 0.000000
0.448448 0.478250 0.000000
0.500000 0.500000 0.000000
0.551552 0.521750 0.000000
0.601956 0.543047 0.000000
0.653080 0.562964 0.000000
0.708748 0.580952 0.000000
0.765580 0.596662 0.000000
0.823115 0.609580 0.000000
0.881205 0.619023 0.000000
0.940192 0.624740 0.000000
1.000000 0.626641 0.000000
0.000000 0.426031 0.000000
0.055943 0.427811 0.000000
0.111187 0.433688 0.000000
0.165776 0.442939 0.000000
0.220052 0.455883 0.000000
0.274365 0.471570 0.000000
0.328132 0.489392 0.000000
0.377471 0.509288 0.000000
0.426886 0.529955 0.000000
0.478250 0.551552 0.000000
0.529955 0.573114 0.000000
0.581420 0.593512 0.000000
0.633467 0.613445 0.000000
0.691431 0.631069 0.000000
0.751526 0.646274 0.000000
0.811811 0.658969 0.000000
0.873477 0.668218 0.000000
0.936164 0.673993 0.000000
1.000000 0.675754 0.000000
0.000000 0.482817 0.000000
0.051895 0.484577 0.000000
0.103448 0.489937 0.000000
0.154692 0.498754 0.000000
0.206159 0.510978 0.000000
0.257594 0.525596 0.000000
0.308826 0.542308 0.000000
0.357409 0.561264 0.000000
0.406488 0.581420 0.000000
0.456953 0.601956 0.000000
0.509288 0.622529 0.000000
0.561264 0.642591 0.000000
0.614746 0.661750 0.000000
0.675163 0.678661 0.000000
0.737558 0.693875 0.000000
0.800931 0.706058 0.000000
0.865925 0.714990 0.000000
0.932259 0.720405 0.000000
1.000000 0.722219 0.000000
0.000000 0.543611 0.000000
0.048174 0.545233 0.000000
0.096148 0.550006 0.000000
0.143990 0.557906 0.000000
0.192743 0.569019 0.000000
0.241635 0.582548 0.000000
0.290798 0.597502 0.000000
0.338250 0.614746 0.000000
0.386555 0.633467 0.000000
0.437036 0.653080 0.000000
0.489392 0.671868 0.000000
0.542308 0.691174 0.000000
0.597502 0.709202 0.000000
0.659294 0.725045 0.000000
0.723766 0.739332 0.000000
0.790170 0.750482 0.000000
0.858539 0.758945 0.000000
0.928549 0.763890 0.000000
1.000000 0.765690 0.000000
0.000000 0.610285 0.000000
0.044883 0.611555 0.000000
0.089825 0.616114 0.000000
0.134748 0.623282 0.000000
0.180994 0.633380 0.000000
0.227532 0.645275 0.000000
0.274955 0.659294 0.000000
0.321339 0.675163 0.000000
0.368931 0.691431 0.000000
0.419048 0.708748 0.000000
0.471570 0.725635 0.000000
0.525596 0.742406 0.000000
0.582548 0.758365 0.000000
0.645275 0.772468 0.000000
0.711849 0.785056 0.000000
0.780830 0.794974 0.000000
0.852174 0.802467 0.000000
0.925238 0.806808 0.000000
1.000000 0.808516 0.000000
0.000000 0.681826 0.000000
0.041884 0.683001 0.000000
0.084096 0.686904 0.000000
0.126581 0.693212 0.000000
0.170783 0.701699 0.000000
0.214944 0.711849 0.000000
0.260668 0.723766 0.000000
0.306125 0.737558 0.000000
0.353726 0.751526 0.000000
0.403338 0.765580 0.000000
0.455883 0.779948 0.000000
0.510978 0.793841 0.000000
0.569019 0.807257 0.000000
0.633380 0.819006 0.000000
0.701699 0.829217 0.000000
0.772871 0.837508 0.000000
0.846701 0.843836 0.000000
0.922389 0.847567 0.000000
1.000000 0.848950 0.000000
0.000000 0.757324 0.000000
0.039579 0.758251 0.000000
0.079662 0.761304 0.000000
0.120224 0.766183 0.000000
0.162492 0.772871 0.000000
0.205026 0.780830 0.000000
0.249518 0.790170 0.000000
0.293942 0.800931 0.000000
0.341031 0.811811 0.000000
0.390420 0.823115 0.000000
0.442939 0.834224 0.000000
0.498754 0.845308 0.000000
0.557906 0.856010 0.000000
0.623282 0.865252 0.000000
0.693212 0.873419 0.000000
0.766183 0.879776 0.000000
0.842119 0.884646 0.000000
0.920066 0.887420 0.000000
1.000000 0.888551 0.000000
0.000000 0.836055 0.000000
0.037792 0.836674 0.000000
0.076255 0.838786 0.000000
0.115354 0.842119 0.000000
0.156164 0.846701 0.000000
0.197533 0.852174 0.000000
0.241055 0.858539 0.000000
0.285010 0.865925 0.000000
0.331782 0.873477 0.000000
0.380977 0.881205 0.000000
0.433688 0.888813 0.000000
0.489937 0.896552 0.000000
0.550006 0.903852 0.000000
0.616114 0.910175 0.000000
0.686904 0.915904 0.000000
0.761304 0.920338 0.000000
0.838786 0.923745 0.000000
0.918322 0.925682 0.000000
1.000000 0.926491 0.000000
0.000000 0.916919 0.000000
0.036795 0.917274 0.000000
0.074318 0.918322 0.000000
0.112580 0.920066 0.000000
0.152433 0.922389 0.000000
0.193192 0.925238 0.000000
0.236110 0.928549 0.000000
0.279595 0.932259 0.000000
0.326007 0.936164 0.000000
0.375260 0.940192 0.000000
0.427811 0.944056 0.000000
0.484577 0.948105 0.000000
0.545233 0.951826 0.000000
0.611555 0.955117 0.000000
0.683001 0.958116 0.000000
0.758251 0.960421 0.000000
0.836674 0.962207 0.000000
0.917274 0.963205 0.000000
1.000000 0.963640 0.000000
0.000000 1.000000 0.000000
0.036360 1.000000 0.000000
0.073509 1.000000 0.000000
0.111449 1.000000 0.000000
0.151050 1.000000 0.000000
0.191484 1.000000 0.000000
0.234310 1.000000 0.000000
0.277781 1.000000 0.000000
0.324246 1.000000 0.000000
0.373359 1.000000 0.000000
0.426031 1.000000 0.000000
0.482817 1.000000 0.000000
0.543611 1.000000 0.000000
0.610285 1.000000 0.000000
0.681826 1.000000 0.000000
0.757324 1.000000 0.000000
0.836055 1.000000 0.000000
0.916919 1.000000 0.000000
1.000000 1.000000 0.000000
0.000000 0.000000 0.055000
0.083081 0.000000 0.055000
0.163945 0.000000 0.055000
0.242676 0.000000 0.055000
0.318174 0.000000 0.055000
0.389715 0.000000 0.055000
0.456389 0.000000 0.055000
0.517183 0.000000 0.055000
0.573969 0.000000 0.055000
0.626641 0.000000 0.055000
0.675754 0.000000 0.055000
0.722219 0.000000 0.055000
0.765690 0.000000 0.055000
0.808516 0.000000 0.055000
0.848950 0.000000 0.055000
0.888551 0.000000 0.055000
0.926491 0.000000 0.055000
0.963640 0.000000 0.055000
1.000000 0.000000 0.055000
0.000000 0.036360 0.055000
0.082725 0.036795 0.055000
0.163326 0.037792 0.055000
0.241749 0.039579 0.055000
0.316999 0.041884 0.055000
0.388445 0.044883 0.055000
0.454767 0.048174 0.055000
0.515423 0.051895 0.055000
0.572189 0.055943 0.055000
0.624740 0.059808 0.055000
0.673993 0.063836 0.055000
0.720405 0.067741 0.055000
0.763890 0.071450 0.055000
0.806808 0.074761 0.055000
0.847567 0.077611 0.055000
0.887421 0.079934 0.055000
0.925682 0.081677 0.055000
0.963205 0.082725 0.055000
1.000000 0.083081 0.055000
0.000000 0.073509 0.055000
0.081677 0.074318 0.055000
0.161214 0.076255 0.055000
0.238696 0.079662 0.055000
0.313096 0.084096 0.055000
0.383886 0.089825 0.055000
0.449994 0.096148 0.055000
0.510063 0.103448 0.055000
0.566312 0.111187 0.055000
0.619023 0.118795 0.055000
0.668218 0.126523 0.055000
0.714990 0.134075 0.055000
0.758945 0.141461 0.055000
0.802467 0.147826 0.055000
0.843836 0.153299 0.055000
0.884646 0.157881 0.055000
0.923745 0.161214 0.055000
0.962207 0.163326 0.055000
1.000000 0.163945 0.055000
0.000000 0.111449 0.055000
0.079934 0.112579 0.055000
0.157881 0.115354 0.055000
0.233817 0.120224 0.055000
0.306788 0.126581 0.055000
0.376718 0.134748 0.055000
0.442094 0.143990 0.055000
0.501246 0.154692 0.055000
0.557061 0.165776 0.055000
0.609580 0.176885 0.055000
0.658969 0.188189 0.055000
0.706058 0.199069 0.055000
0.750482 0.209830 0.055000
0.794974 0.219170 0.055000
0.837508 0.227129 0.055000
0.879776 0.233817 0.055000
0.920338 0.238696 0.055000
0.960421 0.241749 0.055000
1.000000 0.242676 0.055000
0.000000 0.151050 0.055000
0.077611 0.152433 0.055000
0.153299 0.156164 0.055000
0.227129 0.162492 0.055000
0.298301 0.170783 0.055000
0.366620 0.180994 0.055000
0.430981 0.192743 0.055000
0.489022 0.206159 0.055000
0.544117 0.220052 0.055000
0.596662 0.234420 0.055000
0.646274 0.248474 0.055000
0.693875 0.262442 0.055000
0.739332 0.276234 0.055000
0.785056 0.288151 0.055000
0.829217 0.298301 0.055000
0.873419 0.306788 0.055000
0.915904 0.313096 0.055000
0.958116 0.316999 0.055000
1.000000 0.318174 0.055000
0.000000 0.191484 0.055000
0.074761 0.193192 0.055000
0.147826 0.197533 0.055000
0.219170 0.205026 0.055000
0.288151 0.214944 0.055000
0.354725 0.227532 0.055000
0.417452 0.241635 0.055000
0.474404 0.257594 0.055000
0.528430 0.274365 0.055000
0.580952 0.291252 0.055000
0.631069 0.308569 0.055000
0.678661 0.324837 0.055000
0.725045 0.340706 0.055000
0.772468 0.354725 0.055000
0.819006 0.366620 0.055000
0.865252 0.376718 0.055000
0.910175 0.383886 0.055000
0.955117 0.388445 0.055000
1.000000 0.389715 0.055000
0.000000 0.234310 0.055000
0.071450 0.236110 0.055000
0.141461 0.241055 0.055000
0.209830 0.249518 0.055000
0.276234 0.260668 0.055000
0.340706 0.274955 0.055000
0.402498 0.290798 0.055000
0.457692 0.308826 0.055000
0.510608 0.328132 0.055000
0.562964 0.346920 0.055000
0.613445 0.366533 0.055000
0.661750 0.385254 0.055000
0.709202 0.402498 0.055000
0.758365 0.417452 0.055000
0.807257 0.430981 0.055000
0.856010 0.442094 0.055000
0.903852 0.449994 0.055000
0.951826 0.454767 0.055000
1.000000 0.456389 0.055000
0.000000 0.277781 0.055000
0.067741 0.279595 0.055000
0.134075 0.285010 0.055000
0.199069 0.293942 0.055000
0.262442 0.306125 0.055000
0.324837 0.321339 0.055000
0.385254 0.338250 0.055000
0.438736 0.357409 0.055000
0.490712 0.377471 0.055000
0.543047 0.398044 0.055000
0.593512 0.418580 0.055000
0.642591 0.438736 0.055000
0.691174 0.457692 0.055000
0.742406 0.474404 0.055000
0.793841 0.489022 0.055000
0.845308 0.501246 0.055000
0.896552 0.510063 0.055000
0.948105 0.515423 0.055000
1.000000 0.517183 0.055000
0.000000 0.324246 0.055000
0.063836 0.326007 0.055000
0.126523 0.331782 0.055000
0.188189 0.341031 0.055000
0.248474 0.353726 0.055000
0.308569 0.368931 0.055000
0.366533 0.386555 0.055000
0.418580 0.406488 0.055000
0.470045 0.426886 0.055000
0.521750 0.448448 0.055000
0.573114 0.470045 0.055000
0.622529 0.490712 0.055000
0.671868 0.510608 0.055000
0.725635 0.528430 0.055000
0.779948 0.544117 0.055000
0.834224 0.557061 0.055000
0.888813 0.566312 0.055000
0.944056 0.572189 0.055000
1.000000 0.573969 0.055000
0.000000 0.373359 0.055000
0.059808 0.375260 0.055000
0.118795 0.380977 0.055000
0.176885 0.390420 0.055000
0.234420 0.403338 0.055000
0.291252 0.419048 0.055000
0.346920 0.437036 0.055000
0.398044 0.456953 0.055000
0.448448 0.478250 0.055000
0.500000 0.500000 0.055000
0.551552 0.521750 0.055000
0.601956 0.543047 0.055000
0.653080 0.562964 0.055000
0.708748 0.580952 0.055000
0.765580 0.596662 0.055000
0.823115 0.609580 0.055000
0.881205 0.619023 0.055000
0.940192 0.624740 0.055000
1.000000 0.626641 0.055000
0.000000 0.426031 0.055000
0.055943 0.427811 0.055000
0.111187 0.433688 0.055000
0.165776 0.442939 0.055000
0.220052 0.455883 0.055000
0.274365 0.471570 0.055000
0.328132 0.489392 0.055000
0.377471 0.509288 0.055000
0.426886 0.529955 0.055000
0.478250 0.551552 0.055000
0.529955 0.573114 0.055000
0.581420 0.593512 0.055000
0.633467 0.613445 0.055000
0.691431 0.631069 0.055000
0.751526 0.646274 0.055000
0.811811 0.658969 0.055000
0.873477 0.668218 0.055000
0.936164 0.673993 0.055000
1.000000 0.675754 0.055000
0.000000 0.482817 0.055000
0.051895 0.484577 0.055000
0.103448 0.489937 0.055000
0.154692 0.498754 0.055000
0.206159 0.510978 0.055000
0.257594 0.525596 0.055000
0.308826 0.542308 0.055000
0.357409 0.561264 0.055000
0.406488 0.581420 0.055000
0.456953 0.601956 0.055000
0.509288 0.622529 0.055000
0.561264 0.642591 0.055000
0.614746 0.661750 0.055000
0.675163 0.678661 0.055000
0.737558 0.693875 0.055000
0.800931 0.706058 0.055000
0.865925 0.714990 0.055000
0.932259 0.720405 0.055000
1.000000 0.722219 0.055000
0.000000 0.543611 0.055000
0.048174 0.545233 0.055000
0.096148 0.550006 0.055000
0.143990 0.557906 0.055000
0.192743 0.569019 0.055000
0.241635 0.582548 0.055000
0.290798 0.597502 0.055000
0.338250 0.614746 0.055000
0.386555 0.633467 0.055000
0.437036 0.653080 0.055000
0.489392 0.671868 0.055000
0.542308 0.691174 0.055000
0.597502 0.709202 0.055000
0.659294 0.725045 0.055000
0.723766 0.739332 0.055000
0.790170 0.750482 0.055000
0.858539 0.758945 0.055000
0.928549 0.763890 0.055000
1.000000 0.765690 0.055000
0.000000 0.610285 0.055000
0.044883 0.611555 0.055000
0.089825 0.616114 0.055000
0.134748 0.623282 0.055000
0.180994 0.633380 0.055000
0.227532 0.645275 0.055000
0.274955 0.659294 0.055000
0.321339 0.675163 0.055000
0.368931 0.691431 0.055000
0.419048 0.708748 0.055000
0.471570 0.725635 0.055000
0.525596 0.742406 0.055000
0.582548 0.758365 0.055000
0.645275 0.772468 0.055000
0.711849 0.785056 0.055000
0.780830 0.794974 0.055000
0.852174 0.802467 0.055000
0.925238 0.806808 0.055000
1.000000 0.808516 0.055000
0.000000 0.681826 0.055000
0.041884 0.683001 0.055000
0.084096 0.686904 0.055000
0.126581 0.693212 0.055000
0.170783 0.701699 0.055000
0.214944 0.711849 0.055000
0.260668 0.723766 0.055000
0.306125 0.737558 0.055000
0.353726 0.751526 0.055000
0.403338 0.765580 0.055000
0.455883 0.779948 0.055000
0.510978 0.793841 0.055000
0.569019 0.807257 0.055000
0.633380 0.819006 0.055000
0.701699 0.829217 0.055000
0.772871 0.837508 0.055000
0.846701 0.843836 0.055000
0.922389 0.847567 0.055000
1.000000 0.848950 0.055000
0.000000 0.757324 0.055000
0.039579 0.758251 0.055000
0.079662 0.761304 0.055000
0.120224 0.766183 0.055000
0.162492 0.772871 0.055000
0.205026 0.780830 0.055000
0.249518 0.790170 0.055000
0.293942 0.800931 0.055000
0.341031 0.811811 0.055000
0.390420 0.823115 0.055000
0.442939 0.834224 0.055000
0.498754 0.845308 0.055000
0.557906 0.856010 0.055000
0.623282 0.865252 0.055000
0.693212 0.873419 0.055000
0.766183 0.879776 0.055000
0.842119 0.884646 0.055000
0.920066 0.887420 0.055000
1.000000 0.888551 0.055000
0.000000 0.836055 0.055000
0.037792 0.836674 0.055000
0.076255 0.838786 0.055000
0.115354 0.842119 0.055000
0.156164 0.846701 0.055000
0.197533 0.852174 0.055000
0.241055 0.858539 0.055000
0.285010 0.865925 0.055000
0.331782 0.873477 0.055000
0.380977 0.881205 0.055000
0.433688 0.888813 0.055000
0.489937 0.896552 0.055000
0.550006 0.903852 0.055000
0.616114 0.910175 0.055000
0.686904 0.915904 0.055000
0.761304 0.920338 0.055000
0.838786 0.923745 0.055000
0.918322 0.925682 0.055000
1.000000 0.926491 0.055000
0.000000 0.916919 0.055000
0.036795 0.917274 0.055000
0.074318 0.918322 0.055000
0.112580 0.920066 0.055000
0.152433 0.922389 0.055000
0.193192 0.925238 0.055000
0.236110 0.928549 0.055000
0.279595 0.932259 0.055000
0.326007 0.936164 0.055000
0.375260 0.940192 0.055000
0.427811 0.944056 0.055000
0.484577 0.948105 0.055000
0.545233 0.951826 0.055000
0.611555 0.955117 0.055000
0.683001 0.958116 0.055000
0.758251 0.960421 0.055000
0.836674 0.962207 0.055000
0.917274 0.963205 0.055000
1.000000 0.963640 0.055000
0.000000 1.000000 0.055000
0.036360 1.000000 0.055000
0.073509 1.000000 0.055000
0.111449 1.000000 0.055000
0.151050 1.000000 0.055000
0.191484 1.000000 0.055000
0.234310 1.000000 0.055000
0.277781 1.000000 0.055000
0.324246 1.000000 0.055000
0.373359 1.000000 0.055000
0.426031 1.000000 0.055000
0.482817 1.000000 0.055000
0.543611 1.000000 0.055000
0.610285 1.000000 0.055000
0.681826 1.000000 0.055000
0.757324 1.000000 0.055000
0.836055 1.000000 0.055000
0.916919 1.000000 0.055000
1.000000 1.000000 0.055000
0.000000 0.000000 0.110000
0.083081 0.000000 0.110000
0.163945 0.000000 0.110000
0.242676 0.000000 0.110000
0.318174 0.000000 0.110000
0.389715 0.000000 0.110000
0.456389 0.000000 0.110000
0.517183 0.000000 0.110000
0.573969 0.000000 0.110000
0.626641 0.000000 0.110000
0.675754 0.000000 0.110000
0.722219 0.000000 0.110000
0.765690 0.000000 0.110000
0.808516 0.000000 0.110000
0.848950 0.000000 0.110000
0.888551 0.000000 0.110000
0.926491 0.000000 0.110000