# vtk DataFile Version 2.0
Mesh for Fierro
ASCII 
DATASET UNSTRUCTURED_GRID

POINTS 2527 float
0.000000 0.000000 0.000000
0.115540 0.000000 0.000000
0.225324 0.000000 0.000000
0.327520 0.000000 0.000000
0.418103 0.000000 0.000000
0.496679 0.000000 0.000000
0.565006 0.000000 0.000000
0.624235 0.000000 0.000000
0.676502 0.000000 0.000000
0.721696 0.000000 0.000000
0.762158 0.000000 0.000000
0.798583 0.000000 0.000000
0.831428 0.000000 0.000000
0.862842 0.000000 0.000000
0.891914 0.000000 0.000000
0.920391 0.000000 0.000000
0.947468 0.000000 0.000000
0.973978 0.000000 0.000000
1.000000 0.000000 0.000000
0.000000 0.026022 0.000000
0.114939 0.026942 0.000000
0.224215 0.028867 0.000000
0.326001 0.032647 0.000000
0.415960 0.037170 0.000000
0.494093 0.042780 0.000000
0.562371 0.048525 0.000000
0.621120 0.055639 0.000000
0.673062 0.063271 0.000000
0.718107 0.070777 0.000000
0.758358 0.078353 0.000000
0.794849 0.085910 0.000000
0.827836 0.093200 0.000000
0.859292 0.099525 0.000000
0.888580 0.105015 0.000000
0.917774 0.109603 0.000000
0.945525 0.112727 0.000000
0.973058 0.114939 0.000000
1.000000 0.115540 0.000000
0.000000 0.052532 0.000000
0.112727 0.054475 0.000000
0.220064 0.058459 0.000000
0.320107 0.065378 0.000000
0.408518 0.073679 0.000000
0.485804 0.084696 0.000000
0.553337 0.096151 0.000000
0.611421 0.110045 0.000000
0.662520 0.124758 0.000000
0.707693 0.139275 0.000000
0.747921 0.154326 0.000000
0.784787 0.168377 0.000000
0.818567 0.182780 0.000000
0.851134 0.195040 0.000000
0.882134 0.205345 0.000000
0.912364 0.214068 0.000000
0.941541 0.220064 0.000000
0.971133 0.224215 0.000000
1.000000 0.225324 0.000000
0.000000 0.079609 0.000000
0.109603 0.082226 0.000000
0.214068 0.087636 0.000000
0.311450 0.097841 0.000000
0.397581 0.109587 0.000000
0.473180 0.125248 0.000000
0.539654 0.142457 0.000000
0.596102 0.162466 0.000000
0.646059 0.183979 0.000000
0.690362 0.204711 0.000000
0.730201 0.226278 0.000000
0.767778 0.246360 0.000000
0.802408 0.266824 0.000000
0.836408 0.284052 0.000000
0.869604 0.299017 0.000000
0.902159 0.311450 0.000000
0.934622 0.320107 0.000000
0.967353 0.326001 0.000000
1.000000 0.327520 0.000000
0.000000 0.108086 0.000000
0.105015 0.111420 0.000000
0.205345 0.117866 0.000000
0.299017 0.130396 0.000000
0.382829 0.145801 0.000000
0.455812 0.165685 0.000000
0.520575 0.187516 0.000000
0.575361 0.212649 0.000000
0.623936 0.239306 0.000000
0.667486 0.266285 0.000000
0.707604 0.292228 0.000000
0.745894 0.317268 0.000000
0.781699 0.342940 0.000000
0.818236 0.364723 0.000000
0.854199 0.382829 0.000000
0.890413 0.397581 0.000000
0.926321 0.408518 0.000000
0.962830 0.415960 0.000000
1.000000 0.418103 0.000000
0.000000 0.137158 0.000000
0.099525 0.140708 0.000000
0.195040 0.148866 0.000000
0.284052 0.163592 0.000000
0.364723 0.181764 0.000000
0.434724 0.205199 0.000000
0.497786 0.230833 0.000000
0.550695 0.260375 0.000000
0.597042 0.291716 0.000000
0.639994 0.322400 0.000000
0.679869 0.353462 0.000000
0.718296 0.381688 0.000000
0.755327 0.410098 0.000000
0.794801 0.434724 0.000000
0.834315 0.455812 0.000000
0.874752 0.473180 0.000000
0.915304 0.485804 0.000000
0.957219 0.494092 0.000000
1.000000 0.496679 0.000000
0.000000 0.168572 0.000000
0.093200 0.172164 0.000000
0.182780 0.181433 0.000000
0.266824 0.197592 0.000000
0.342940 0.218301 0.000000
0.410098 0.244673 0.000000
0.471612 0.273228 0.000000
0.521766 0.306202 0.000000
0.566463 0.341353 0.000000
0.608652 0.374848 0.000000
0.648256 0.409352 0.000000
0.687775 0.441304 0.000000
0.726772 0.471612 0.000000
0.769167 0.497786 0.000000
0.812484 0.520575 0.000000
0.857543 0.539654 0.000000
0.903849 0.553337 0.000000
0.951475 0.562371 0.000000
1.000000 0.565006 0.000000
0.000000 0.201417 0.000000
0.085910 0.205151 0.000000
0.168377 0.215213 0.000000
0.246360 0.232222 0.000000
0.317268 0.254106 0.000000
0.381688 0.281704 0.000000
0.441304 0.312225 0.000000
0.488797 0.346467 0.000000
0.532147 0.382587 0.000000
0.573715 0.418486 0.000000
0.613126 0.454204 0.000000
0.653533 0.488797 0.000000
0.693798 0.521766 0.000000
0.739625 0.550695 0.000000
0.787351 0.575361 0.000000
0.837534 0.596102 0.000000
0.889955 0.611421 0.000000
0.944360 0.621120 0.000000
1.000000 0.624235 0.000000
0.000000 0.237842 0.000000
0.078353 0.241642 0.000000
0.154326 0.252079 0.000000
0.226278 0.269799 0.000000
0.292228 0.292396 0.000000
0.353462 0.320131 0.000000
0.409352 0.351744 0.000000
0.454204 0.386874 0.000000
0.496724 0.422996 0.000000
0.537099 0.459798 0.000000
0.577004 0.496724 0.000000
0.617413 0.532147 0.000000
0.658647 0.566463 0.000000
0.708284 0.597042 0.000000
0.760694 0.623936 0.000000
0.816021 0.646059 0.000000
0.875242 0.662520 0.000000
0.936729 0.673061 0.000000
1.000000 0.676502 0.000000
0.000000 0.278304 0.000000
0.070777 0.281893 0.000000
0.139275 0.292307 0.000000
0.204711 0.309638 0.000000
0.266285 0.332514 0.000000
0.322400 0.360006 0.000000
0.374848 0.391348 0.000000
0.418486 0.426285 0.000000
0.459798 0.462901 0.000000
0.500000 0.500000 0.000000
0.540202 0.537099 0.000000
0.581514 0.573715 0.000000
0.625152 0.608652 0.000000
0.677600 0.639994 0.000000
0.733715 0.667486 0.000000
0.795289 0.690362 0.000000
0.860725 0.707693 0.000000
0.929223 0.718107 0.000000
1.000000 0.721696 0.000000
0.000000 0.323498 0.000000
0.063271 0.326938 0.000000
0.124758 0.337480 0.000000
0.183979 0.353941 0.000000
0.239306 0.376064 0.000000
0.291716 0.402958 0.000000
0.341353 0.433537 0.000000
0.382587 0.467853 0.000000
0.422996 0.503276 0.000000
0.462901 0.540202 0.000000
0.503276 0.577004 0.000000
0.545796 0.613126 0.000000
0.590648 0.648256 0.000000
0.646538 0.679869 0.000000
0.707772 0.707604 0.000000
0.773722 0.730201 0.000000
0.845674 0.747921 0.000000
0.921647 0.758358 0.000000
1.000000 0.762158 0.000000
0.000000 0.375765 0.000000
0.055639 0.378880 0.000000
0.110045 0.388579 0.000000
0.162466 0.403898 0.000000
0.212649 0.424639 0.000000
0.260375 0.449305 0.000000
0.306202 0.478234 0.000000
0.346467 0.511203 0.000000
0.386874 0.545796 0.000000
0.426285 0.581514 0.000000
0.467853 0.617413 0.000000
0.511203 0.653533 0.000000
0.558696 0.687775 0.000000
0.618312 0.718296 0.000000
0.682732 0.745894 0.000000
0.753640 0.767778 0.000000
0.831623 0.784787 0.000000
0.914089 0.794849 0.000000
1.000000 0.798583 0.000000
0.000000 0.434994 0.000000
0.048525 0.437629 0.000000
0.096151 0.446663 0.000000
0.142457 0.460346 0.000000
0.187516 0.479425 0.000000
0.230833 0.502214 0.000000
0.273228 0.528388 0.000000
0.312225 0.558696 0.000000
0.351744 0.590648 0.000000
0.391348 0.625152 0.000000
0.433537 0.658647 0.000000
0.478234 0.693798 0.000000
0.528388 0.726772 0.000000
0.589902 0.755327 0.000000
0.657060 0.781699 0.000000
0.733176 0.802408 0.000000
0.817220 0.818567 0.000000
0.906799 0.827836 0.000000
1.000000 0.831428 0.000000
0.000000 0.503321 0.000000
0.042780 0.505907 0.000000
0.084696 0.514196 0.000000
0.125248 0.526820 0.000000
0.165685 0.544188 0.000000
0.205199 0.565276 0.000000
0.244673 0.589902 0.000000
0.281704 0.618312 0.000000
0.320131 0.646538 0.000000
0.360006 0.677600 0.000000
0.402958 0.708284 0.000000
0.449305 0.739625 0.000000
0.502214 0.769167 0.000000
0.565276 0.794801 0.000000
0.635277 0.818236 0.000000
0.715948 0.836408 0.000000
0.804960 0.851134 0.000000
0.900474 0.859292 0.000000
1.000000 0.862842 0.000000
0.000000 0.581897 0.000000
0.037170 0.584040 0.000000
0.073679 0.591482 0.000000
0.109587 0.602419 0.000000
0.145801 0.617171 0.000000
0.181764 0.635277 0.000000
0.218301 0.657060 0.000000
0.254106 0.682732 0.000000
0.292396 0.707772 0.000000
0.332514 0.733715 0.000000
0.376064 0.760694 0.000000
0.424639 0.787351 0.000000
0.479425 0.812484 0.000000
0.544188 0.834315 0.000000
0.617171 0.854199 0.000000
0.700983 0.869604 0.000000
0.794655 0.882134 0.000000
0.894984 0.888580 0.000000
1.000000 0.891914 0.000000
0.000000 0.672480 0.000000
0.032647 0.673999 0.000000
0.065378 0.679893 0.000000
0.097841 0.688550 0.000000
0.130396 0.700983 0.000000
0.163592 0.715948 0.000000
0.197592 0.733176 0.000000
0.232222 0.753640 0.000000
0.269799 0.773722 0.000000
0.309638 0.795289 0.000000
0.353941 0.816021 0.000000
0.403898 0.837534 0.000000
0.460346 0.857543 0.000000
0.526820 0.874752 0.000000
0.602419 0.890413 0.000000
0.688550 0.902159 0.000000
0.785932 0.912364 0.000000
0.890397 0.917774 0.000000
1.000000 0.920391 0.000000
0.000000 0.774676 0.000000
0.028867 0.775785 0.000000
0.058459 0.779936 0.000000
0.087636 0.785932 0.000000
0.117866 0.794655 0.000000
0.148866 0.804960 0.000000
0.181433 0.817220 0.000000
0.215213 0.831623 0.000000
0.252079 0.845674 0.000000
0.292307 0.860725 0.000000
0.337480 0.875242 0.000000
0.388579 0.889955 0.000000
0.446663 0.903849 0.000000
0.514196 0.915304 0.000000
0.591482 0.926321 0.000000
0.679893 0.934622 0.000000
0.779936 0.941541 0.000000
0.887272 0.945525 0.000000
1.000000 0.947468 0.000000
0.000000 0.884459 0.000000
0.026942 0.885060 0.000000
0.054475 0.887272 0.000000
0.082226 0.890397 0.000000
0.111420 0.894984 0.000000
0.140708 0.900474 0.000000
0.172164 0.906799 0.000000
0.205151 0.914089 0.000000
0.241642 0.921647 0.000000
0.281893 0.929223 0.000000
0.326939 0.936729 0.000000
0.378880 0.944360 0.000000
0.437629 0.951475 0.000000
0.505908 0.957219 0.000000
0.584040 0.962830 0.000000
0.673999 0.967353 0.000000
0.775785 0.971133 0.000000
0.885060 0.973058 0.000000
1.000000 0.973978 0.000000
0.000000 1.000000 0.000000
0.026022 1.000000 0.000000
0.052532 1.000000 0.000000
0.079609 1.000000 0.000000
0.108086 1.000000 0.000000
0.137158 1.000000 0.000000
0.168572 1.000000 0.000000
0.201417 1.000000 0.000000
0.237842 1.000000 0.000000
0.278304 1.000000 0.000000
0.323498 1.000000 0.000000
0.375765 1.000000 0.000000
0.434994 1.000000 0.000000
0.503321 1.000000 0.000000
0.581897 1.000000 0.000000
0.672480 1.000000 0.000000
0.774676 1.000000 0.000000
0.884459 1.000000 0.000000
1.000000 1.000000 0.000000
0.000000 0.000000 0.055000
0.115540 0.000000 0.055000
0.225324 0.000000 0.055000
0.327520 0.000000 0.055000
0.418103 0.000000 0.055000
[...]
POINT_DATA 2527 
VECTORS pos float 
0.000000 0.000000 0.000000
0.115540 0.000000 0.000000
0.225324 0.000000 0.000000
0.327520 0.000000 0.000000
0.418103 0.000000 0.000000
0.496679 0.000000 0.000000
0.565006 0.000000 0.000000
0.624235 0.000000 0.000000
0.676502 0.000000 0.000000
0.721696 0.000000 0.000000
0.762158 0.000000 0.000000
0.798583 0.000000 0.000000
0.831428 0.000000 0.000000
0.862842 0.000000 0.000000
0.891914 0.000000 0.000000
0.920391 0.000000 0.000000
0.947468 0.000000 0.000000
0.973978 0.000000 0.000000
1.000000 0.000000 0.000000
0.000000 0.026022 0.000000
0.114939 0.026942 0.000000
0.224215 0.028867 0.000000
0.326001 0.032647 0.000000
0.415960 0.037170 0.000000
0.494093 0.042780 0.000000
0.562371 0.048525 0.000000
0.621120 0.055639 0.000000
0.673062 0.063271 0.000000
0.718107 0.070777 0.000000
0.758358 0.078353 0.000000
0.794849 0.085910 0.000000
0.827836 0.093200 0.000000
0.859292 0.099525 0.000000
0.888580 0.105015 0.000000
0.917774 0.109603 0.000000
0.945525 0.112727 0.000000
0.973058 0.114939 0.000000
1.000000 0.115540 0.000000
0.000000 0.052532 0.000000
0.112727 0.054475 0.000000
0.220064 0.058459 0.000000
0.320107 0.065378 0.000000
0.408518 0.073679 0.000000
0.485804 0.084696 0.000000
0.553337 0.096151 0.000000
0.611421 0.110045 0.000000
0.662520 0.124758 0.000000
0.707693 0.139275 0.000000
0.747921 0.154326 0.000000
0.784787 0.168377 0.000000
0.818567 0.182780 0.000000
0.851134 0.195040 0.000000
0.882134 0.205345 0.000000
0.912364 0.214068 0.000000
0.941541 0.220064 0.000000
0.971133 0.224215 0.000000
1.000000 0.225324 0.000000
0.000000 0.079609 0.000000
0.109603 0.082226 0.000000
0.214068 0.087636 0.000000
0.311450 0.097841 0.000000
0.397581 0.109587 0.000000
0.473180 0.125248 0.000000
0.539654 0.142457 0.000000
0.596102 0.162466 0.000000
0.646059 0.183979 0.000000
0.690362 0.204711 0.000000
0.730201 0.226278 0.000000
0.767778 0.246360 0.000000
0.802408 0.266824 0.000000
0.836408 0.284052 0.000000
0.869604 0.299017 0.000000
0.902159 0.311450 0.000000
0.934622 0.320107 0.000000
0.967353 0.326001 0.000000
1.000000 0.327520 0.000000
0.000000 0.108086 0.000000
0.105015 0.111420 0.000000
0.205345 0.117866 0.000000
0.299017 0.130396 0.000000
0.382829 0.145801 0.000000
0.455812 0.165685 0.000000
0.520575 0.187516 0.000000
0.575361 0.212649 0.000000
0.623936 0.239306 0.000000
0.667486 0.266285 0.000000
0.707604 0.292228 0.000000
0.745894 0.317268 0.000000
0.781699 0.342940 0.000000
0.818236 0.364723 0.000000
0.854199 0.382829 0.000000
0.890413 0.397581 0.000000
0.926321 0.408518 0.000000
0.962830 0.415960 0.000000
1.000000 0.418103 0.000000
0.000000 0.137158 0.000000
0.099525 0.140708 0.000000
0.195040 0.148866 0.000000
0.284052 0.163592 0.000000
0.364723 0.181764 0.000000
0.434724 0.205199 0.000000
0.497786 0.230833 0.000000
0.550695 0.260375 0.000000
0.597042 0.291716 0.000000
0.639994 0.322400 0.000000
0.679869 0.353462 0.000000
0.718296 0.381688 0.000000
0.755327 0.410098 0.000000
0.794801 0.434724 0.000000
0.834315 0.455812 0.000000
0.874752 0.473180 0.000000
0.915304 0.485804 0.000000
0.957219 0.494092 0.000000
1.000000 0.496679 0.000000
0.000000 0.168572 0.000000
0.093200 0.172164 0.000000
0.182780 0.181433 0.000000
0.266824 0.197592 0.000000
0.342940 0.218301 0.000000
0.410098 0.244673 0.000000
0.471612 0.273228 0.000000
0.521766 0.306202 0.000000
0.566463 0.341353 0.000000
0.608652 0.374848 0.000000
0.648256 0.409352 0.000000
0.687775 0.441304 0.000000
0.726772 0.471612 0.000000
0.769167 0.497786 0.000000
0.812484 0.520575 0.000000
0.857543 0.539654 0.000000
0.903849 0.553337 0.000000
0.951475 0.562371 0.000000
1.000000 0.565006 0.000000
0.000000 0.201417 0.000000
0.085910 0.205151 0.000000
0.168377 0.215213 0.000000
0.246360 0.232222 0.000000
0.317268 0.254106 0.000000
0.381688 0.281704 0.000000
0.441304 0.312225 0.000000
0.488797 0.346467 0.000000
0.532147 0.382587 0.000000
0.573715 0.418486 0.000000
0.613126 0.454204 0.000000
0.653533 0.488797 0.000000
0.693798 0.521766 0.000000
0.739625 0.550695 0.000000
0.787351 0.575361 0.000000
0.837534 0.596102 0.000000
0.889955 0.611421 0.000000
0.944360 0.621120 0.000000
1.000000 0.624235 0.000000
0.000000 0.237842 0.000000
0.078353 0.241642 0.000000
0.154326 0.252079 0.000000
0.226278 0.269799 0.000000
0.292228 0.292396 0.000000
0.353462 0.320131 0.000000
0.409352 0.351744 0.000000
0.454204 0.386874 0.000000
0.496724 0.422996 0.000000
0.537099 0.459798 0.000000
0.577004 0.496724 0.000000
0.617413 0.532147 0.000000
0.658647 0.566463 0.000000
0.708284 0.597042 0.000000
0.760694 0.623936 0.000000
0.816021 0.646059 0.000000
0.875242 0.662520 0.000000
0.936729 0.673061 0.000000
1.000000 0.676502 0.000000
0.000000 0.278304 0.000000
0.070777 0.281893 0.000000
0.139275 0.292307 0.000000
0.204711 0.309638 0.000000
0.266285 0.332514 0.000000
0.322400 0.360006 0.000000
0.374848 0.391348 0.000000
0.418486 0.426285 0.000000
0.459798 0.462901 0.000000
0.500000 0.500000 0.000000
0.540202 0.537099 0.000000
0.581514 0.573715 0.000000
0.625152 0.608652 0.000000
0.677600 0.639994 0.000000
0.733715 0.667486 0.000000
0.795289 0.690362 0.000000
0.860725 0.707693 0.000000
0.929223 0.718107 0.000000
1.000000 0.721696 0.000000
0.000000 0.323498 0.000000
0.063271 0.326938 0.000000
0.124758 0.337480 0.000000
0.183979 0.353941 0.000000
0.239306 0.376064 0.000000
0.291716 0.402958 0.000000
0.341353 0.433537 0.000000
0.382587 0.467853 0.000000
0.422996 0.503276 0.000000
0.462901 0.540202 0.000000
0.503276 0.577004 0.000000
0.545796 0.613126 0.000000
0.590648 0.648256 0.000000
0.646538 0.679869 0.000000
0.707772 0.707604 0.000000
0.773722 0.730201 0.000000
0.845674 0.747921 0.000000
0.921647 0.758358 0.000000
1.000000 0.762158 0.000000
0.000000 0.375765 0.000000
0.055639 0.378880 0.000000
0.110045 0.388579 0.000000
0.162466 0.403898 0.000000
0.212649 0.424639 0.000000
0.260375 0.449305 0.000000
0.306202 0.478234 0.000000
0.346467 0.511203 0.000000
0.386874 0.545796 0.000000
0.426285 0.581514 0.000000
0.467853 0.617413 0.000000
0.511203 0.653533 0.000000
0.558696 0.687775 0.000000
0.618312 0.718296 0.000000
0.682732 0.745894 0.000000
0.753640 0.767778 0.000000
0.831623 0.784787 0.000000
0.914089 0.794849 0.000000
1.000000 0.798583 0.000000
0.000000 0.434994 0.000000
0.048525 0.437629 0.000000
0.096151 0.446663 0.000000
0.142457 0.460346 0.000000
0.187516 0.479425 0.000000
0.230833 0.502214 0.000000
0.273228 0.528388 0.000000
0.312225 0.558696 0.000000
0.351744 0.590648 0.000000
0.391348 0.625152 0.000000
0.433537 0.658647 0.000000
0.478234 0.693798 0.000000
0.528388 0.726772 0.000000
0.589902 0.755327 0.000000
0.657060 0.781699 0.000000
0.733176 0.802408 0.000000
0.817220 0.818567 0.000000
0.906799 0.827836 0.000000
1.000000 0.831428 0.000000
0.000000 0.503321 0.000000
0.042780 0.505907 0.000000
0.084696 0.514196 0.000000
0.125248 0.526820 0.000000
0.165685 0.544188 0.000000
0.205199 0.565276 0.000000
0.244673 0.589902 0.000000
0.281704 0.618312 0.000000
0.320131 0.646538 0.000000
0.360006 0.677600 0.000000
0.402958 0.708284 0.000000
0.449305 0.739625 0.000000
0.502214 0.769167 0.000000
0.565276 0.794801 0.000000
0.635277 0.818236 0.000000
0.715948 0.836408 0.000000
0.804960 0.851134 0.000000
0.900474 0.859292 0.000000
1.000000 0.862842 0.000000
0.000000 0.581897 0.000000
0.037170 0.584040 0.000000
0.073679 0.591482 0.000000
0.109587 0.602419 0.000000
0.145801 0.617171 0.000000
0.181764 0.635277 0.000000
0.218301 0.657060 0.000000
0.254106 0.682732 0.000000
0.292396 0.707772 0.000000
0.332514 0.733715 0.000000
0.376064 0.760694 0.000000
0.424639 0.787351 0.000000
0.479425 0.812484 0.000000
0.544188 0.834315 0.000000
0.617171 0.854199 0.000000
0.700983 0.869604 0.000000
0.794655 0.882134 0.000000
0.894984 0.888580 0.000000
1.000000 0.891914 0.000000
0.000000 0.672480 0.000000
0.032647 0.673999 0.000000
0.065378 0.679893 0.000000
0.097841 0.688550 0.000000
0.130396 0.700983 0.000000
0.163592 0.715948 0.000000
0.197592 0.733176 0.000000
0.232222 0.753640 0.000000
0.269799 0.773722 0.000000
0.309638 0.795289 0.000000
0.353941 0.816021 0.000000
0.403898 0.837534 0.000000
0.460346 0.857543 0.000000
0.526820 0.874752 0.000000
0.602419 0.890413 0.000000
0.688550 0.902159 0.000000
0.785932 0.912364 0.000000
0.890397 0.917774 0.000000
1.000000 0.920391 0.000000
0.000000 0.774676 0.000000
0.028867 0.775785 0.000000
0.058459 0.779936 0.000000
0.087636 0.785932 0.000000
0.117866 0.794655 0.000000
0.148866 0.804960 0.000000
0.181433 0.817220 0.000000
0.215213 0.831623 0.000000
0.252079 0.845674 0.000000
0.292307 0.860725 0.000000
0.337480 0.875242 0.000000
0.388579 0.889955 0.000000
0.446663 0.903849 0.000000
0.514196 0.915304 0.000000
0.591482 0.926321 0.000000
0.679893 0.934622 0.000000
0.779936 0.941541 0.000000
0.887272 0.945525 0.000000
1.000000 0.947468 0.000000
0.000000 0.884459 0.000000
0.026942 0.885060 0.000000
0.054475 0.887272 0.000000
0.082226 0.890397 0.000000
0.111420 0.894984 0.000000
0.140708 0.900474 0.000000
0.172164 0.906799 0.000000
0.205151 0.914089 0.000000
0.241642 0.921647 0.000000
0.281893 0.929223 0.000000
0.326939 0.936729 0.000000
0.378880 0.944360 0.000000
0.437629 0.951475 0.000000
0.505908 0.957219 0.000000
0.584040 0.962830 0.000000
0.673999 0.967353 0.000000
0.775785 0.971133 0.000000
0.885060 0.973058 0.000000
1.000000 0.973978 0.000000
0.000000 1.000000 0.000000
0.026022 1.000000 0.000000
0.052532 1.000000 0.000000
0.079609 1.000000 0.000000
0.108086 1.000000 0.000000
0.137158 1.000000 0.000000
0.168572 1.000000 0.000000
0.201417 1.000000 0.000000
0.237842 1.000000 0.000000
0.278304 1.000000 0.000000
0.323498 1.000000 0.000000
0.375765 1.000000 0.000000
0.434994 1.000000 0.000000
0.503321 1.000000 0.000000
0.581897 1.000000 0.000000
0.672480 1.000000 0.000000
0.774676 1.000000 0.000000
0.884459 1.000000 0.000000
1.000000 1.000000 0.000000
0.000000 0.000000 0.055000
0.115540 0.000000 0.055000
0.225324 0.000000 0.055000
0.327520 0.000000 0.055000
0.418103 0.000000 0.055000
0.496679 0.000000 0.055000
0.565006 0.000000 0.055000
0.624235 0.000000 0.055000
0.676502 0.000000 0.055000
0.721696 0.000000 0.055000
0.762158 0.000000 0.055000
0.798583 0.000000 0.055000
0.831428 0.000000 0.055000
0.862842 0.000000 0.055000
0.891914 0.000000 0.055000
0.920391 0.000000 0.055000
0.947468 0.000000 0.055000
0.973978 0.000000 0.055000
1.000000 0.000000 0.055000
0.000000 0.026022 0.055000
0.114939 0.026942 0.055000
0.224215 0.028867 0.055000
0.326001 0.032647 0.055000
0.415960 0.037170 0.055000
0.494093 0.042780 0.055000
0.562371 0.048525 0.055000
0.621120 0.055639 0.055000
0.673062 0.063271 0.055000
0.718107 0.070777 0.055000
0.758358 0.078353 0.055000
0.794849 0.085910 0.055000
0.827836 0.093200 0.055000
0.859292 0.099525 0.055000
0.888580 0.105015 0.055000
0.917774 0.109603 0.055000
0.945525 0.112727 0.055000
0.973058 0.114939 0.055000
1.000000 0.115540 0.055000
0.000000 0.052532 0.055000
0.112727 0.054475 0.055000
0.220064 0.058459 0.055000
0.320107 0.065378 0.055000
0.408518 0.073679 0.055000
0.485804 0.084696 0.055000
0.553337 0.096151 0.055000
0.611421 0.110045 0.055000
0.662520 0.124758 0.055000
0.707693 0.139275 0.055000
0.747921 0.154326 0.055000
0.784787 0.168377 0.055000
0.818567 0.182780 0.055000
0.851134 0.195040 0.055000
0.882134 0.205345 0.055000
0.912364 0.214068 0.055000
0.941541 0.220064 0.055000
0.971133 0.224215 0.055000
1.000000 0.225324 0.055000
0.000000 0.079609 0.055000
0.109603 0.082226 0.055000
0.214068 0.087636 0.055000
0.311450 0.097841 0.055000
0.397581 0.109587 0.055000
0.473180 0.125248 0.055000
0.539654 0.142457 0.055000
0.596102 0.162466 0.055000
0.646059 0.183979 0.055000
0.690362 0.204711 0.055000
0.730201 0.226278 0.055000
0.767778 0.246360 0.055000
0.802408 0.266824 0.055000
0.836408 0.284052 0.055000
0.869604 0.299017 0.055000
0.902159 0.311450 0.055000
0.934622 0.320107 0.055000
0.967353 0.326001 0.055000
1.000000 0.327520 0.055000
0.000000 0.108086 0.055000
0.105015 0.111420 0.055000
0.205345 0.117866 0.055000
0.299017 0.130396 0.055000
0.382829 0.145801 0.055000
0.455812 0.165685 0.055000
0.520575 0.187516 0.055000
0.575361 0.212649 0.055000
0.623936 0.239306 0.055000
0.667486 0.266285 0.055000
0.707604 0.292228 0.055000
0.745894 0.317268 0.055000
0.781699 0.342940 0.055000
0.818236 0.364723 0.055000
0.854199 0.382829 0.055000
0.890413 0.397581 0.055000
0.926321 0.408518 0.055000
0.962830 0.415960 0.055000
1.000000 0.418103 0.055000
0.000000 0.137158 0.055000
0.099525 0.140708 0.055000
0.195040 0.148866 0.055000
0.284052 0.163592 0.055000
0.364723 0.181764 0.055000
0.434724 0.205199 0.055000
0.497786 0.230833 0.055000
0.550695 0.260375 0.055000
0.597042 0.291716 0.055000
0.639994 0.322400 0.055000
0.679869 0.353462 0.055000
0.718296 0.381688 0.055000
0.755327 0.410098 0.055000
0.794801 0.434724 0.055000
0.834315 0.455812 0.055000
0.874752 0.473180 0.055000
0.915304 0.485804 0.055000
0.957219 0.494092 0.055000
1.000000 0.496679 0.055000
0.000000 0.168572 0.055000
0.093200 0.172164 0.055000
0.182780 0.181433 0.055000
0.266824 0.197592 0.055000
0.342940 0.218301 0.055000
0.410098 0.244673 0.055000
0.471612 0.273228 0.055000
0.521766 0.306202 0.055000
0.566463 0.341353 0.055000
0.608652 0.374848 0.055000
0.648256 0.409352 0.055000
0.687775 0.441304 0.055000
0.726772 0.471612 0.055000
0.769167 0.497786 0.055000
0.812484 0.520575 0.055000
0.857543 0.539654 0.055000
0.903849 0.553337 0.055000
0.951475 0.562371 0.055000
1.000000 0.565006 0.055000
0.000000 0.201417 0.055000
0.085910 0.205151 0.055000
0.168377 0.215213 0.055000
0.246360 0.232222 0.055000
0.317268 0.254106 0.055000
0.381688 0.281704 0.055000
0.441304 0.312225 0.055000
0.488797 0.346467 0.055000
0.532147 0.382587 0.055000
0.573715 0.418486 0.055000
0.613126 0.454204 0.055000
0.653533 0.488797 0.055000
0.693798 0.521766 0.055000
0.739625 0.550695 0.055000
0.787351 0.575361 0.055000
0.837534 0.596102 0.055000
0.889955 0.611421 0.055000
0.944360 0.621120 0.055000
1.000000 0.624235 0.055000
0.000000 0.237842 0.055000
0.078353 0.241642 0.055000
0.154326 0.252079 0.055000
0.226278 0.269799 0.055000
0.292228 0.292396 0.055000
0.353462 0.320131 0.055000
0.409352 0.351744 0.055000
0.454204 0.386874 0.055000
0.496724 0.422996 0.055000
0.537099 0.459798 0.055000
0.577004 0.496724 0.055000
0.617413 0.532147 0.055000
0.658647 0.566463 0.055000
0.708284 0.597042 0.055000
0.760694 0.623936 0.055000
0.816021 0.646059 0.055000
0.875242 0.662520 0.055000
0.936729 0.673061 0.055000
1.000000 0.676502 0.055000
0.000000 0.278304 0.055000
0.070777 0.281893 0.055000
0.139275 0.292307 0.055000
0.204711 0.309638 0.055000
0.266285 0.332514 0.055000
0.322400 0.360006 0.055000
0.374848 0.391348 0.055000
0.418486 0.426285 0.055000
0.459798 0.462901 0.055000
0.500000 0.500000 0.055000
0.540202 0.537099 0.055000
0.581514 0.573715 0.055000
0.625152 0.608652 0.055000
0.677600 0.639994 0.055000
0.733715 0.667486 0.055000
0.795289 0.690362 0.055000
0.860725 0.707693 0.055000
0.929223 0.718107 0.055000
1.000000 0.721696 0.055000
0.000000 0.323498 0.055000
0.063271 0.326938 0.055000
0.124758 0.337480 0.055000
0.183979 0.353941 0.055000
0.239306 0.376064 0.055000
0.291716 0.402958 0.055000
0.341353 0.433537 0.055000
0.382587 0.467853 0.055000
0.422996 0.503276 0.055000
0.462901 0.540202 0.055000
0.503276 0.577004 0.055000
0.545796 0.613126 0.055000
0.590648 0.648256 0.055000
0.646538 0.679869 0.055000
0.707772 0.707604 0.055000
0.773722 0.730201 0.055000
0.845674 0.747921 0.055000
0.921647 0.758358 0.055000
1.000000 0.762158 0.055000
0.000000 0.375765 0.055000
0.055639 0.378880 0.055000
0.110045 0.388579 0.055000
0.162466 0.403898 0.055000
0.212649 0.424639 0.055000
0.260375 0.449305 0.055000
0.306202 0.478234 0.055000
0.346467 0.511203 0.055000
0.386874 0.545796 0.055000
0.426285 0.581514 0.055000
0.467853 0.617413 0.055000
0.511203 0.653533 0.055000
0.558696 0.687775 0.055000
0.618312 0.718296 0.055000
0.682732 0.745894 0.055000
0.753640 0.767778 0.055000
0.831623 0.784787 0.055000
0.914089 0.794849 0.055000
1.000000 0.798583 0.055000
0.000000 0.434994 0.055000
0.048525 0.437629 0.055000
0.096151 0.446663 0.055000
0.142457 0.460346 0.055000
0.187516 0.479425 0.055000
0.230833 0.502214 0.055000
0.273228 0.528388 0.055000
0.312225 0.558696 0.055000
0.351744 0.590648 0.055000
0.391348 0.625152 0.055000
0.433537 0.658647 0.055000
0.478234 0.693798 0.055000
0.528388 0.726772 0.055000
0.589902 0.755327 0.055000
0.657060 0.781699 0.055000
0.733176 0.802408 0.055000
0.817220 0.818567 0.055000
0.906799 0.827836 0.055000
1.000000 0.831428 0.055000
0.000000 0.503321 0.055000
0.042780 0.505907 0.055000
0.084696 0.514196 0.055000
0.125248 0.526820 0.055000
0.165685 0.544188 0.055000
0.205199 0.565276 0.055000
0.244673 0.589902 0.055000
0.281704 0.618312 0.055000
0.320131 0.646538 0.055000
0.360006 0.677600 0.055000
0.402958 0.708284 0.055000
0.449305 0.739625 0.055000
0.502214 0.769167 0.055000
0.565276 0.794801 0.055000
0.635277 0.818236 0.055000
0.715948 0.836408 0.055000
0.804960 0.851134 0.055000
0.900474 0.859292 0.055000
1.000000 0.862842 0.055000
0.000000 0.581897 0.055000
0.037170 0.584040 0.055000
0.073679 0.591482 0.055000
0.109587 0.602419 0.055000
0.145801 0.617171 0.055000
0.181764 0.635277 0.055000
0.218301 0.657060 0.055000
0.254106 0.682732 0.055000
0.292396 0.707772 0.055000
0.332514 0.733715 0.055000
0.376064 0.760694 0.055000
0.424639 0.787351 0.055000
0.479425 0.812484 0.055000
0.544188 0.834315 0.055000
0.617171 0.854199 0.055000
0.700983 0.869604 0.055000
0.794655 0.882134 0.055000
0.894984 0.888580 0.055000
1.000000 0.891914 0.055000
0.000000 0.672480 0.055000
0.032647 0.673999 0.055000
0.065378 0.679893 0.055000
0.097841 0.688550 0.055000
0.130396 0.700983 0.055000
0.163592 0.715948 0.055000
0.197592 0.733176 0.055000
0.232222 0.753640 0.055000
0.269799 0.773722 0.055000
0.309638 0.795289 0.055000
0.353941 0.816021 0.055000
0.403898 0.837534 0.055000
0.460346 0.857543 0.055000
0.526820 0.874752 0.055000
0.602419 0.890413 0.055000
0.688550 0.902159 0.055000
0.785932 0.912364 0.055000
0.890397 0.917774 0.055000
1.000000 0.920391 0.055000
0.000000 0.774676 0.055000
0.028867 0.775785 0.055000
0.058459 0.779936 0.055000
0.087636 0.785932 0.055000
0.117866 0.794655 0.055000
0.148866 0.804960 0.055000
0.181433 0.817220 0.055000
0.215213 0.831623 0.055000
0.252079 0.845674 0.055000
0.292307 0.860725 0.055000
0.337480 0.875242 0.055000
0.388579 0.889955 0.055000
0.446663 0.903849 0.055000
0.514196 0.915304 0.055000
0.591482 0.926321 0.055000
0.679893 0.934622 0.055000
0.779936 0.941541 0.055000
0.887272 0.945525 0.055000
1.000000 0.947468 0.055000
0.000000 0.884459 0.055000
0.026942 0.885060 0.055000
0.054475 0.887272 0.055000
0.082226 0.890397 0.055000
0.111420 0.894984 0.055000
0.140708 0.900474 0.055000
0.172164 0.906799 0.055000
0.205151 0.914089 0.055000
0.241642 0.921647 0.055000
0.281893 0.929223 0.055000
0.326939 0.936729 0.055000
0.378880 0.944360 0.055000
0.437629 0.951475 0.055000
0.505908 0.957219 0.055000
0.584040 0.962830 0.055000
0.673999 0.967353 0.055000
0.775785 0.971133 0.055000
0.885060 0.973058 0.055000
1.000000 0.973978 0.055000
0.000000 1.000000 0.055000
0.026022 1.000000 0.055000
0.052532 1.000000 0.055000
0.079609 1.000000 0.055000
0.108086 1.000000 0.055000
0.137158 1.000000 0.055000
0.168572 1.000000 0.055000
0.201417 1.000000 0.055000
0.237842 1.000000 0.055000
0.278304 1.000000 0.055000
0.323498 1.000000 0.055000
0.375765 1.000000 0.055000
0.434994 1.000000 0.055000
0.503321 1.000000 0.055000
0.581897 1.000000 0.055000
0.672480 1.000000 0.055000
0.774676 1.000000 0.055000
0.884459 1.000000 0.055000
1.000000 1.000000 0.055000
0.000000 0.000000 0.110000
0.115540 0.000000 0.110000
0.225324 0.000000 0.110000
0.327520 0.000000 0.110000
0.418103 0.000000 0.110000
0.496679 0.000000 0.110000
0.565006 0.000000 0.110000
0.624235 0.000000 0.110000
0.676502 0.000000 0.110000
0.721696 0.000000 0.110000
0.762158 0.000000 0.110000
0.798583 0.000000 0.110000
0.831428 0.000000 0.110000
0.862842 0.000000 0.110000
0.891914 0.000000 0.110000
0.920391 0.000000 0.110000
0.947468 0.000000 0.110000