# vtk DataFile Version 2.0
Mesh for Fierro
ASCII 
DATASET UNSTRUCTURED_GRID

POINTS 2527 float
0.000000 0.000000 0.000000
0.268792 0.000000 0.000000
0.475895 0.000000 0.000000
0.605238 0.000000 0.000000
0.694985 0.000000 0.000000
0.754028 0.000000 0.000000
0.795972 0.000000 0.000000
0.829186 0.000000 0.000000
0.856274 0.000000 0.000000
0.878831 0.000000 0.000000
0.897070 0.000000 0.000000
0.913661 0.000000 0.000000
0.927814 0.000000 0.000000
0.941360 0.000000 0.000000
0.953783 0.000000 0.000000
0.965679 0.000000 0.000000
0.977346 0.000000 0.000000
0.988801 0.000000 0.000000
1.000000 0.000000 0.000000
0.000000 0.011188 0.000000
0.267284 0.012285 0.000000
0.472619 0.019381 0.000000
0.601146 0.028735 0.000000
0.689299 0.042505 0.000000
0.747875 0.059131 0.000000
0.790269 0.079821 0.000000
0.823102 0.100042 0.000000
0.850875 0.122528 0.000000
0.872699 0.146528 0.000000
0.891742 0.167656 0.000000
0.908487 0.189977 0.000000
0.923371 0.211308 0.000000
0.937351 0.228157 0.000000
0.950461 0.241994 0.000000
0.963233 0.253486 0.000000
0.975627 0.260515 0.000000
0.987732 0.267293 0.000000
1.000000 0.268696 0.000000
0.000000 0.022662 0.000000
0.260498 0.024370 0.000000
0.463542 0.038028 0.000000
0.591415 0.056430 0.000000
0.678582 0.082416 0.000000
0.736345 0.113891 0.000000
0.777568 0.151777 0.000000
0.809548 0.188999 0.000000
0.834288 0.229142 0.000000
0.854262 0.269178 0.000000
0.870485 0.307921 0.000000
0.885087 0.344193 0.000000
0.898500 0.378444 0.000000
0.912730 0.406486 0.000000
0.927691 0.430832 0.000000
0.944242 0.450324 0.000000
0.961962 0.463507 0.000000
0.980614 0.472623 0.000000
1.000000 0.475929 0.000000
0.000000 0.034311 0.000000
0.253474 0.036763 0.000000
0.450313 0.055747 0.000000
0.576585 0.082316 0.000000
0.660349 0.117939 0.000000
0.714709 0.160299 0.000000
0.752874 0.210345 0.000000
0.782222 0.258257 0.000000
0.801908 0.311498 0.000000
0.817564 0.360436 0.000000
0.830099 0.408854 0.000000
0.843603 0.452901 0.000000
0.856640 0.494937 0.000000
0.874307 0.527568 0.000000
0.894096 0.555423 0.000000
0.917674 0.576606 0.000000
0.943569 0.591413 0.000000
0.971264 0.601143 0.000000
1.000000 0.605220 0.000000
0.000000 0.046201 0.000000
0.242059 0.049543 0.000000
0.430881 0.072328 0.000000
0.555424 0.105905 0.000000
0.637104 0.149486 0.000000
0.688630 0.201103 0.000000
0.723478 0.259784 0.000000
0.749347 0.315586 0.000000
0.762242 0.376839 0.000000
0.773898 0.431181 0.000000
0.783269 0.482381 0.000000
0.795405 0.527549 0.000000
0.806008 0.571669 0.000000
0.826447 0.606587 0.000000
0.850514 0.637115 0.000000
0.882063 0.660344 0.000000
0.917590 0.678572 0.000000
0.957492 0.689308 0.000000
1.000000 0.694992 0.000000
0.000000 0.058669 0.000000
0.228180 0.062667 0.000000
0.406469 0.087270 0.000000
0.527548 0.125691 0.000000
0.606588 0.173550 0.000000
0.654388 0.230207 0.000000
0.685904 0.292536 0.000000
0.707657 0.352808 0.000000
0.713592 0.415349 0.000000
0.721799 0.471744 0.000000
0.726203 0.525223 0.000000
0.736551 0.571753 0.000000
0.745781 0.616865 0.000000
0.769788 0.654381 0.000000
0.798894 0.688631 0.000000
0.839714 0.714705 0.000000
0.886110 0.736354 0.000000
0.940866 0.747873 0.000000
1.000000 0.754026 0.000000
0.000000 0.072185 0.000000
0.211375 0.076680 0.000000
0.378510 0.101524 0.000000
0.494958 0.143363 0.000000
0.571658 0.193992 0.000000
0.616834 0.254171 0.000000
0.646234 0.318979 0.000000
0.661005 0.381895 0.000000
0.660751 0.444478 0.000000
0.665426 0.500758 0.000000
0.665063 0.554431 0.000000
0.673866 0.601668 0.000000
0.681014 0.646225 0.000000
0.707448 0.685921 0.000000
0.740253 0.723477 0.000000
0.789663 0.752873 0.000000
0.848220 0.777561 0.000000
0.920168 0.790285 0.000000
1.000000 0.795993 0.000000
0.000000 0.086370 0.000000
0.189977 0.091503 0.000000
0.344233 0.114926 0.000000
0.452933 0.156404 0.000000
0.527530 0.204589 0.000000
0.571753 0.263462 0.000000
0.601645 0.326155 0.000000
0.612775 0.386801 0.000000
0.610377 0.446372 0.000000
0.610627 0.505077 0.000000
0.608018 0.560248 0.000000
0.613186 0.612749 0.000000
0.618105 0.661003 0.000000
0.647182 0.707649 0.000000
0.684415 0.749343 0.000000
0.741732 0.782222 0.000000
0.810997 0.809524 0.000000
0.899950 0.823096 0.000000
1.000000 0.829159 0.000000
0.000000 0.102908 0.000000
0.167650 0.108272 0.000000
0.307920 0.129533 0.000000
0.408865 0.169899 0.000000
0.482385 0.216736 0.000000
0.525211 0.273791 0.000000
0.554435 0.334931 0.000000
0.560254 0.391987 0.000000
0.558455 0.447965 0.000000
0.555847 0.503953 0.000000
0.552068 0.558469 0.000000
0.553587 0.610372 0.000000
0.555539 0.660705 0.000000
0.584645 0.713616 0.000000
0.623170 0.762237 0.000000
0.688494 0.801894 0.000000
0.770860 0.834258 0.000000
0.877451 0.850815 0.000000
1.000000 0.856170 0.000000
0.000000 0.121168 0.000000
0.146533 0.127304 0.000000
0.269138 0.145734 0.000000
0.360433 0.182428 0.000000
0.431172 0.226109 0.000000
0.471733 0.278183 0.000000
0.500798 0.334576 0.000000
0.505083 0.389407 0.000000
0.503927 0.444144 0.000000
0.499996 0.500007 0.000000
0.496068 0.555863 0.000000
0.494915 0.610626 0.000000
0.499225 0.665423 0.000000
0.528268 0.721813 0.000000
0.568790 0.773905 0.000000
0.639566 0.817580 0.000000
0.730806 0.854233 0.000000
0.853372 0.872648 0.000000
1.000000 0.878761 0.000000
0.000000 0.143734 0.000000
0.122551 0.149103 0.000000
0.229143 0.165722 0.000000
0.311507 0.198083 0.000000
0.376864 0.237770 0.000000
0.415345 0.286405 0.000000
0.444479 0.339260 0.000000
0.446403 0.389613 0.000000
0.447928 0.441546 0.000000
0.444157 0.496070 0.000000
0.441528 0.552056 0.000000
0.439739 0.608039 0.000000
0.445571 0.665044 0.000000
0.474792 0.726222 0.000000
0.517636 0.783262 0.000000
0.591138 0.830112 0.000000
0.692192 0.870487 0.000000
0.832295 0.891784 0.000000
1.000000 0.897129 0.000000
0.000000 0.170832 0.000000
0.100040 0.176909 0.000000
0.188987 0.190461 0.000000
0.258253 0.217781 0.000000
0.315599 0.250645 0.000000
0.352812 0.292334 0.000000
0.381892 0.338981 0.000000
0.386804 0.387236 0.000000
0.391981 0.439752 0.000000
0.389369 0.494925 0.000000
0.389627 0.553602 0.000000
0.387243 0.613199 0.000000
0.398339 0.673866 0.000000
0.428267 0.736537 0.000000
0.472450 0.795414 0.000000
0.547038 0.843580 0.000000
0.655826 0.885051 0.000000
0.810082 0.908485 0.000000
1.000000 0.913445 0.000000
0.000000 0.204047 0.000000
0.079809 0.209712 0.000000
0.151809 0.222427 0.000000
0.210382 0.247134 0.000000
0.259787 0.276549 0.000000
0.292517 0.314127 0.000000
0.319015 0.353784 0.000000
0.326145 0.398349 0.000000
0.334954 0.445583 0.000000
0.334585 0.499214 0.000000
0.339289 0.555545 0.000000
0.338983 0.618104 0.000000
0.353775 0.680977 0.000000
0.383142 0.745804 0.000000
0.428317 0.805982 0.000000
0.505059 0.856672 0.000000
0.621687 0.898404 0.000000
0.788649 0.923422 0.000000
1.000000 0.927968 0.000000
0.000000 0.245983 0.000000
0.059157 0.252123 0.000000
0.113873 0.263641 0.000000
0.160265 0.285283 0.000000
0.201087 0.311352 0.000000
0.230223 0.345584 0.000000
0.254183 0.383156 0.000000
0.263469 0.428253 0.000000
0.273776 0.474782 0.000000
0.278191 0.528278 0.000000
0.286383 0.584637 0.000000
0.292344 0.647172 0.000000
0.314105 0.707481 0.000000
0.345593 0.769784 0.000000
0.393460 0.826451 0.000000
0.472423 0.874330 0.000000
0.593615 0.912675 0.000000
0.771885 0.937382 0.000000
1.000000 0.941239 0.000000
0.000000 0.304981 0.000000
0.042504 0.310683 0.000000
0.082433 0.321430 0.000000
0.117961 0.339657 0.000000
0.149520 0.362908 0.000000
0.173560 0.393455 0.000000
0.194023 0.428323 0.000000
0.204571 0.472458 0.000000
0.216743 0.517632 0.000000
0.226099 0.568809 0.000000
0.237771 0.623149 0.000000
0.250650 0.684425 0.000000
0.276537 0.740192 0.000000
0.311354 0.798911 0.000000
0.362902 0.850478 0.000000
0.444518 0.894130 0.000000
0.569301 0.927616 0.000000
0.757992 0.950575 0.000000
1.000000 0.953758 0.000000
0.000000 0.394748 0.000000
0.028728 0.398839 0.000000
0.056399 0.408569 0.000000
0.082296 0.423381 0.000000
0.105864 0.444528 0.000000
0.125671 0.472410 0.000000
0.143314 0.505080 0.000000
0.156418 0.547047 0.000000
0.169890 0.591130 0.000000
0.182422 0.639553 0.000000
0.198112 0.688496 0.000000
0.217772 0.741732 0.000000
0.247141 0.789636 0.000000
0.285286 0.839728 0.000000
0.339661 0.882052 0.000000
0.423377 0.917695 0.000000
0.549670 0.944183 0.000000
0.746324 0.963335 0.000000
1.000000 0.965524 0.000000
0.000000 0.524005 0.000000
0.019398 0.527313 0.000000
0.038114 0.536495 0.000000
0.055823 0.549681 0.000000
0.072398 0.569285 0.000000
0.087339 0.593620 0.000000
0.101628 0.621671 0.000000
0.114949 0.655842 0.000000
0.129539 0.692169 0.000000
0.145781 0.730815 0.000000
0.165751 0.770865 0.000000
0.190485 0.811005 0.000000
0.222432 0.848186 0.000000
0.263640 0.886137 0.000000
0.321432 0.917563 0.000000
0.408569 0.943596 0.000000
0.536514 0.961896 0.000000
0.739090 0.975604 0.000000
1.000000 0.977202 0.000000
0.000000 0.731207 0.000000
0.012225 0.732463 0.000000
0.024416 0.739040 0.000000
0.036675 0.746257 0.000000
0.049432 0.757982 0.000000
0.062609 0.771847 0.000000
0.076598 0.788506 0.000000
0.091505 0.810030 0.000000
0.108227 0.832220 0.000000
0.127355 0.853390 0.000000
0.149180 0.877430 0.000000
0.176904 0.899955 0.000000
0.209705 0.920188 0.000000
0.252127 0.940838 0.000000
0.310680 0.957503 0.000000
0.398843 0.971266 0.000000
0.527294 0.980614 0.000000
0.732510 0.987789 0.000000
1.000000 0.988804 0.000000
0.000000 1.000000 0.000000
0.011190 1.000000 0.000000
0.022830 1.000000 0.000000
0.034479 1.000000 0.000000
0.046329 1.000000 0.000000
0.058819 1.000000 0.000000
0.072037 1.000000 0.000000
0.086593 1.000000 0.000000
0.102900 1.000000 0.000000
0.121242 1.000000 0.000000
0.143826 1.000000 0.000000
0.170844 1.000000 0.000000
0.204018 1.000000 0.000000
0.245989 1.000000 0.000000
0.304980 1.000000 0.000000
0.394742 1.000000 0.000000
0.523985 1.000000 0.000000
0.731284 1.000000 0.000000
1.000000 1.000000 0.000000
0.000000 0.000000 0.055152
0.268843 0.000000 0.054987
0.475805 0.000000 0.054981
0.605272 0.000000 0.055001
0.694971 0.000000 0.054993
[...]
POINT_DATA 2527 
VECTORS pos float 
0.000000 0.000000 0.000000
0.268792 0.000000 0.000000
0.475895 0.000000 0.000000
0.605238 0.000000 0.000000
0.694985 0.000000 0.000000
0.754028 0.000000 0.000000
0.795972 0.000000 0.000000
0.829186 0.000000 0.000000
0.856274 0.000000 0.000000
0.878831 0.000000 0.000000
0.897070 0.000000 0.000000
0.913661 0.000000 0.000000
0.927814 0.000000 0.000000
0.941360 0.000000 0.000000
0.953783 0.000000 0.000000
0.965679 0.000000 0.000000
0.977346 0.000000 0.000000
0.988801 0.000000 0.000000
1.000000 0.000000 0.000000
0.000000 0.011188 0.000000
0.267284 0.012285 0.000000
0.472619 0.019381 0.000000
0.601146 0.028735 0.000000
0.689299 0.042505 0.000000
0.747875 0.059131 0.000000
0.790269 0.079821 0.000000
0.823102 0.100042 0.000000
0.850875 0.122528 0.000000
0.872699 0.146528 0.000000
0.891742 0.167656 0.000000
0.908487 0.189977 0.000000
0.923371 0.211308 0.000000
0.937351 0.228157 0.000000
0.950461 0.241994 0.000000
0.963233 0.253486 0.000000
0.975627 0.260515 0.000000
0.987732 0.267293 0.000000
1.000000 0.268696 0.000000
0.000000 0.022662 0.000000
0.260498 0.024370 0.000000
0.463542 0.038028 0.000000
0.591415 0.056430 0.000000
0.678582 0.082416 0.000000
0.736345 0.113891 0.000000
0.777568 0.151777 0.000000
0.809548 0.188999 0.000000
0.834288 0.229142 0.000000
0.854262 0.269178 0.000000
0.870485 0.307921 0.000000
0.885087 0.344193 0.000000
0.898500 0.378444 0.000000
0.912730 0.406486 0.000000
0.927691 0.430832 0.000000
0.944242 0.450324 0.000000
0.961962 0.463507 0.000000
0.980614 0.472623 0.000000
1.000000 0.475929 0.000000
0.000000 0.034311 0.000000
0.253474 0.036763 0.000000
0.450313 0.055747 0.000000
0.576585 0.082316 0.000000
0.660349 0.117939 0.000000
0.714709 0.160299 0.000000
0.752874 0.210345 0.000000
0.782222 0.258257 0.000000
0.801908 0.311498 0.000000
0.817564 0.360436 0.000000
0.830099 0.408854 0.000000
0.843603 0.452901 0.000000
0.856640 0.494937 0.000000
0.874307 0.527568 0.000000
0.894096 0.555423 0.000000
0.917674 0.576606 0.000000
0.943569 0.591413 0.000000
0.971264 0.601143 0.000000
1.000000 0.605220 0.000000
0.000000 0.046201 0.000000
0.242059 0.049543 0.000000
0.430881 0.072328 0.000000
0.555424 0.105905 0.000000
0.637104 0.149486 0.000000
0.688630 0.201103 0.000000
0.723478 0.259784 0.000000
0.749347 0.315586 0.000000
0.762242 0.376839 0.000000
0.773898 0.431181 0.000000
0.783269 0.482381 0.000000
0.795405 0.527549 0.000000
0.806008 0.571669 0.000000
0.826447 0.606587 0.000000
0.850514 0.637115 0.000000
0.882063 0.660344 0.000000
0.917590 0.678572 0.000000
0.957492 0.689308 0.000000
1.000000 0.694992 0.000000
0.000000 0.058669 0.000000
0.228180 0.062667 0.000000
0.406469 0.087270 0.000000
0.527548 0.125691 0.000000
0.606588 0.173550 0.000000
0.654388 0.230207 0.000000
0.685904 0.292536 0.000000
0.707657 0.352808 0.000000
0.713592 0.415349 0.000000
0.721799 0.471744 0.000000
0.726203 0.525223 0.000000
0.736551 0.571753 0.000000
0.745781 0.616865 0.000000
0.769788 0.654381 0.000000
0.798894 0.688631 0.000000
0.839714 0.714705 0.000000
0.886110 0.736354 0.000000
0.940866 0.747873 0.000000
1.000000 0.754026 0.000000
0.000000 0.072185 0.000000
0.211375 0.076680 0.000000
0.378510 0.101524 0.000000
0.494958 0.143363 0.000000
0.571658 0.193992 0.000000
0.616834 0.254171 0.000000
0.646234 0.318979 0.000000
0.661005 0.381895 0.000000
0.660751 0.444478 0.000000
0.665426 0.500758 0.000000
0.665063 0.554431 0.000000
0.673866 0.601668 0.000000
0.681014 0.646225 0.000000
0.707448 0.685921 0.000000
0.740253 0.723477 0.000000
0.789663 0.752873 0.000000
0.848220 0.777561 0.000000
0.920168 0.790285 0.000000
1.000000 0.795993 0.000000
0.000000 0.086370 0.000000
0.189977 0.091503 0.000000
0.344233 0.114926 0.000000
0.452933 0.156404 0.000000
0.527530 0.204589 0.000000
0.571753 0.263462 0.000000
0.601645 0.326155 0.000000
0.612775 0.386801 0.000000
0.610377 0.446372 0.000000
0.610627 0.505077 0.000000
0.608018 0.560248 0.000000
0.613186 0.612749 0.000000
0.618105 0.661003 0.000000
0.647182 0.707649 0.000000
0.684415 0.749343 0.000000
0.741732 0.782222 0.000000
0.810997 0.809524 0.000000
0.899950 0.823096 0.000000
1.000000 0.829159 0.000000
0.000000 0.102908 0.000000
0.167650 0.108272 0.000000
0.307920 0.129533 0.000000
0.408865 0.169899 0.000000
0.482385 0.216736 0.000000
0.525211 0.273791 0.000000
0.554435 0.334931 0.000000
0.560254 0.391987 0.000000
0.558455 0.447965 0.000000
0.555847 0.503953 0.000000
0.552068 0.558469 0.000000
0.553587 0.610372 0.000000
0.555539 0.660705 0.000000
0.584645 0.713616 0.000000
0.623170 0.762237 0.000000
0.688494 0.801894 0.000000
0.770860 0.834258 0.000000
0.877451 0.850815 0.000000
1.000000 0.856170 0.000000
0.000000 0.121168 0.000000
0.146533 0.127304 0.000000
0.269138 0.145734 0.000000
0.360433 0.182428 0.000000
0.431172 0.226109 0.000000
0.471733 0.278183 0.000000
0.500798 0.334576 0.000000
0.505083 0.389407 0.000000
0.503927 0.444144 0.000000
0.499996 0.500007 0.000000
0.496068 0.555863 0.000000
0.494915 0.610626 0.000000
0.499225 0.665423 0.000000
0.528268 0.721813 0.000000
0.568790 0.773905 0.000000
0.639566 0.817580 0.000000
0.730806 0.854233 0.000000
0.853372 0.872648 0.000000
1.000000 0.878761 0.000000
0.000000 0.143734 0.000000
0.122551 0.149103 0.000000
0.229143 0.165722 0.000000
0.311507 0.198083 0.000000
0.376864 0.237770 0.000000
0.415345 0.286405 0.000000
0.444479 0.339260 0.000000
0.446403 0.389613 0.000000
0.447928 0.441546 0.000000
0.444157 0.496070 0.000000
0.441528 0.552056 0.000000
0.439739 0.608039 0.000000
0.445571 0.665044 0.000000
0.474792 0.726222 0.000000
0.517636 0.783262 0.000000
0.591138 0.830112 0.000000
0.692192 0.870487 0.000000
0.832295 0.891784 0.000000
1.000000 0.897129 0.000000
0.000000 0.170832 0.000000
0.100040 0.176909 0.000000
0.188987 0.190461 0.000000
0.258253 0.217781 0.000000
0.315599 0.250645 0.000000
0.352812 0.292334 0.000000
0.381892 0.338981 0.000000
0.386804 0.387236 0.000000
0.391981 0.439752 0.000000
0.389369 0.494925 0.000000
0.389627 0.553602 0.000000
0.387243 0.613199 0.000000
0.398339 0.673866 0.000000
0.428267 0.736537 0.000000
0.472450 0.795414 0.000000
0.547038 0.843580 0.000000
0.655826 0.885051 0.000000
0.810082 0.908485 0.000000
1.000000 0.913445 0.000000
0.000000 0.204047 0.000000
0.079809 0.209712 0.000000
0.151809 0.222427 0.000000
0.210382 0.247134 0.000000
0.259787 0.276549 0.000000
0.292517 0.314127 0.000000
0.319015 0.353784 0.000000
0.326145 0.398349 0.000000
0.334954 0.445583 0.000000
0.334585 0.499214 0.000000
0.339289 0.555545 0.000000
0.338983 0.618104 0.000000
0.353775 0.680977 0.000000
0.383142 0.745804 0.000000
0.428317 0.805982 0.000000
0.505059 0.856672 0.000000
0.621687 0.898404 0.000000
0.788649 0.923422 0.000000
1.000000 0.927968 0.000000
0.000000 0.245983 0.000000
0.059157 0.252123 0.000000
0.113873 0.263641 0.000000
0.160265 0.285283 0.000000
0.201087 0.311352 0.000000
0.230223 0.345584 0.000000
0.254183 0.383156 0.000000
0.263469 0.428253 0.000000
0.273776 0.474782 0.000000
0.278191 0.528278 0.000000
0.286383 0.584637 0.000000
0.292344 0.647172 0.000000
0.314105 0.707481 0.000000
0.345593 0.769784 0.000000
0.393460 0.826451 0.000000
0.472423 0.874330 0.000000
0.593615 0.912675 0.000000
0.771885 0.937382 0.000000
1.000000 0.941239 0.000000
0.000000 0.304981 0.000000
0.042504 0.310683 0.000000
0.082433 0.321430 0.000000
0.117961 0.339657 0.000000
0.149520 0.362908 0.000000
0.173560 0.393455 0.000000
0.194023 0.428323 0.000000
0.204571 0.472458 0.000000
0.216743 0.517632 0.000000
0.226099 0.568809 0.000000
0.237771 0.623149 0.000000
0.250650 0.684425 0.000000
0.276537 0.740192 0.000000
0.311354 0.798911 0.000000
0.362902 0.850478 0.000000
0.444518 0.894130 0.000000
0.569301 0.927616 0.000000
0.757992 0.950575 0.000000
1.000000 0.953758 0.000000
0.000000 0.394748 0.000000
0.028728 0.398839 0.000000
0.056399 0.408569 0.000000
0.082296 0.423381 0.000000
0.105864 0.444528 0.000000
0.125671 0.472410 0.000000
0.143314 0.505080 0.000000
0.156418 0.547047 0.000000
0.169890 0.591130 0.000000
0.182422 0.639553 0.000000
0.198112 0.688496 0.000000
0.217772 0.741732 0.000000
0.247141 0.789636 0.000000
0.285286 0.839728 0.000000
0.339661 0.882052 0.000000
0.423377 0.917695 0.000000
0.549670 0.944183 0.000000
0.746324 0.963335 0.000000
1.000000 0.965524 0.000000
0.000000 0.524005 0.000000
0.019398 0.527313 0.000000
0.038114 0.536495 0.000000
0.055823 0.549681 0.000000
0.072398 0.569285 0.000000
0.087339 0.593620 0.000000
0.101628 0.621671 0.000000
0.114949 0.655842 0.000000
0.129539 0.692169 0.000000
0.145781 0.730815 0.000000
0.165751 0.770865 0.000000
0.190485 0.811005 0.000000
0.222432 0.848186 0.000000
0.263640 0.886137 0.000000
0.321432 0.917563 0.000000
0.408569 0.943596 0.000000
0.536514 0.961896 0.000000
0.739090 0.975604 0.000000
1.000000 0.977202 0.000000
0.000000 0.731207 0.000000
0.012225 0.732463 0.000000
0.024416 0.739040 0.000000
0.036675 0.746257 0.000000
0.049432 0.757982 0.000000
0.062609 0.771847 0.000000
0.076598 0.788506 0.000000
0.091505 0.810030 0.000000
0.108227 0.832220 0.000000
0.127355 0.853390 0.000000
0.149180 0.877430 0.000000
0.176904 0.899955 0.000000
0.209705 0.920188 0.000000
0.252127 0.940838 0.000000
0.310680 0.957503 0.000000
0.398843 0.971266 0.000000
0.527294 0.980614 0.000000
0.732510 0.987789 0.000000
1.000000 0.988804 0.000000
0.000000 1.000000 0.000000
0.011190 1.000000 0.000000
0.022830 1.000000 0.000000
0.034479 1.000000 0.000000
0.046329 1.000000 0.000000
0.058819 1.000000 0.000000
0.072037 1.000000 0.000000
0.086593 1.000000 0.000000
0.102900 1.000000 0.000000
0.121242 1.000000 0.000000
0.143826 1.000000 0.000000
0.170844 1.000000 0.000000
0.204018 1.000000 0.000000
0.245989 1.000000 0.000000
0.304980 1.000000 0.000000
0.394742 1.000000 0.000000
0.523985 1.000000 0.000000
0.731284 1.000000 0.000000
1.000000 1.000000 0.000000
0.000000 0.000000 0.055152
0.268843 0.000000 0.054987
0.475805 0.000000 0.054981
0.605272 0.000000 0.055001
0.694971 0.000000 0.054993
0.754019 0.000000 0.055000
0.796001 0.000000 0.055013
0.829166 0.000000 0.054992
0.856235 0.000000 0.055017
0.878824 0.000000 0.054992
0.897085 0.000000 0.055035
0.913566 0.000000 0.054982
0.928019 0.000000 0.054886
0.941280 0.000000 0.054968
0.953840 0.000000 0.055101
0.965731 0.000000 0.054961
0.977356 0.000000 0.054999
0.988824 0.000000 0.055045
1.000000 0.000000 0.055107
0.000000 0.011185 0.055082
0.267467 0.012266 0.055009
0.472649 0.019377 0.055002
0.601157 0.028725 0.054996
0.689309 0.042514 0.054998
0.747865 0.059135 0.054993
0.790291 0.079810 0.055000
0.823096 0.100058 0.055009
0.850859 0.122523 0.054992
0.872698 0.146608 0.054989
0.891754 0.167717 0.055011
0.908539 0.189896 0.054992
0.923463 0.211536 0.055002
0.937388 0.228305 0.055030
0.950553 0.242126 0.054999
0.963326 0.253698 0.055013
0.975610 0.260809 0.054998
0.987735 0.267500 0.055000
1.000000 0.268943 0.055002
0.000000 0.022642 0.054986
0.260783 0.024387 0.054998
0.463545 0.038048 0.054999
0.591420 0.056420 0.055002
0.678580 0.082421 0.054985
0.736363 0.113884 0.055007
0.777555 0.151795 0.054993
0.809540 0.188988 0.054998
0.834268 0.229136 0.054987
0.854241 0.269162 0.054991
0.870464 0.307851 0.055000
0.885070 0.344079 0.055002
0.898366 0.378521 0.055016
0.912682 0.406406 0.055002
0.927630 0.430757 0.055005
0.944237 0.450279 0.055007
0.961948 0.463516 0.054996
0.980617 0.472658 0.054995
1.000000 0.475792 0.054977
0.000000 0.034241 0.054931
0.253696 0.036674 0.055015
0.450286 0.055751 0.055014
0.576583 0.082307 0.054987
0.660371 0.117943 0.055006
0.714705 0.160289 0.054996
0.752876 0.210351 0.055000
0.782220 0.258254 0.055001
0.801906 0.311510 0.054999
0.817570 0.360434 0.055008
0.830107 0.408835 0.055015
0.843584 0.452930 0.054992
0.856645 0.494991 0.054994
0.874328 0.527571 0.054990
0.894127 0.555442 0.054997
0.917709 0.576582 0.054995
0.943589 0.591426 0.054998
0.971276 0.601156 0.055000
1.000000 0.605278 0.055008
0.000000 0.046134 0.055061
0.242102 0.049464 0.054984
0.430762 0.072353 0.055011
0.555430 0.105876 0.054998
0.637098 0.149491 0.055010
0.688636 0.201101 0.054990
0.723465 0.259744 0.055009
0.749349 0.315597 0.055000
0.762232 0.376854 0.054997
0.773893 0.431179 0.055000
0.783269 0.482364 0.054988
0.795410 0.527539 0.055001
0.805998 0.571656 0.054999
0.826451 0.606563 0.055013
0.850505 0.637092 0.055012
0.882053 0.660362 0.055006
0.917570 0.678583 0.054992
0.957488 0.689313 0.054996
1.000000 0.694969 0.054976
0.000000 0.058695 0.054986
0.228345 0.062613 0.055008
0.406405 0.087306 0.054991
0.527586 0.125679 0.055000
0.606559 0.173546 0.055006
0.654408 0.230213 0.054990
0.685880 0.292572 0.055003
0.707662 0.352806 0.055000
0.713598 0.415389 0.055008
0.721832 0.471731 0.054998
0.726229 0.525197 0.054999
0.736523 0.571759 0.055011
0.745860 0.616831 0.054998
0.769789 0.654412 0.054991
0.798903 0.688643 0.054988
0.839710 0.714712 0.054996
0.886120 0.736354 0.055007
0.940866 0.747858 0.054994
1.000000 0.754024 0.055007
0.000000 0.071952 0.054917
0.211474 0.076539 0.054991
0.378495 0.101616 0.055017
0.495002 0.143355 0.054999
0.571658 0.194014 0.055006
0.616851 0.254167 0.055003
0.646201 0.318988 0.055008
0.661009 0.381900 0.055000
0.660740 0.444467 0.055000
0.665419 0.500784 0.055004
0.665064 0.554439 0.054999
0.673826 0.601661 0.055001
0.681002 0.646206 0.055011
0.707444 0.685871 0.055002
0.740224 0.723464 0.055012
0.789636 0.752871 0.054995
0.848205 0.777563 0.054989
0.920188 0.790302 0.055011
1.000000 0.796023 0.054995
0.000000 0.086412 0.054969
0.189922 0.091470 0.054994
0.344100 0.114938 0.055002
0.452924 0.156407 0.055001
0.527540 0.204589 0.055000
0.571747 0.263471 0.055000
0.601660 0.326140 0.054992
0.612772 0.386810 0.054997
0.610364 0.446381 0.054995
0.610627 0.505075 0.054996
0.608035 0.560241 0.055002
0.613180 0.612770 0.054999
0.618104 0.661013 0.054993
0.647202 0.707667 0.054998
0.684402 0.749358 0.054996
0.741739 0.782222 0.055000
0.811016 0.809537 0.055013
0.899941 0.823098 0.054998
1.000000 0.829172 0.054991
0.000000 0.102910 0.055020
0.167663 0.108237 0.055016
0.307871 0.129536 0.054999
0.408849 0.169898 0.055007
0.482351 0.216716 0.055006
0.525191 0.273770 0.055004
0.554442 0.334945 0.055009
0.560252 0.391976 0.054996
0.558456 0.447945 0.054999
0.555857 0.503933 0.055005
0.552054 0.558454 0.055010
0.553628 0.610370 0.055007
0.555530 0.660750 0.054993
0.584624 0.713588 0.055011
0.623144 0.762226 0.055007
0.688489 0.801898 0.054995
0.770862 0.834263 0.055003
0.877451 0.850887 0.055009
1.000000 0.856262 0.054990
0.000000 0.121181 0.054984
0.146587 0.127305 0.054991
0.269163 0.145750 0.054995
0.360426 0.182432 0.054998
0.431200 0.226114 0.055007
0.471755 0.278189 0.055006
0.500779 0.334591 0.055003
0.505088 0.389364 0.055002
0.503930 0.444141 0.055001
0.500005 0.500007 0.055002
0.496060 0.555860 0.055003
0.494923 0.610635 0.054999
0.499214 0.665425 0.055001
0.528279 0.721829 0.054998
0.568842 0.773908 0.054995
0.639560 0.817581 0.054999
0.730841 0.854250 0.055018
0.853391 0.872692 0.055021
1.000000 0.878853 0.055030
0.000000 0.143770 0.055037
0.122531 0.149142 0.054994
0.229137 0.165729 0.054993
0.311511 0.198092 0.054995
0.376843 0.237761 0.054997
0.415373 0.286396 0.055001
0.444464 0.339252 0.054988
0.446367 0.389638 0.055003
0.447954 0.441541 0.054993
0.444144 0.496069 0.055008
0.441543 0.552050 0.054997
0.439747 0.608028 0.055005
0.445547 0.665039 0.055002
0.474803 0.726205 0.054994
0.517596 0.783254 0.054998
0.591178 0.830120 0.054982
0.692121 0.870474 0.054990
0.832333 0.891778 0.054997
1.000000 0.897131 0.054998
0.000000 0.170851 0.055002
0.100057 0.176911 0.055011
0.188993 0.190463 0.054998
0.258252 0.217777 0.055006
0.315592 0.250654 0.055000
0.352802 0.292340 0.054994
0.381896 0.338991 0.055000
0.386823 0.387224 0.054999
0.391965 0.439756 0.055004
0.389362 0.494913 0.054997
0.389641 0.553629 0.055004
0.387217 0.613195 0.054990
0.398348 0.673858 0.055010
0.428258 0.736543 0.055009
0.472460 0.795421 0.055003
0.547071 0.843586 0.055007
0.655853 0.885090 0.054988
0.810075 0.908531 0.055008
1.000000 0.913568 0.055127
0.000000 0.204016 0.055013
0.079812 0.209719 0.054998
0.151779 0.222437 0.055004
0.210347 0.247124 0.054998
0.259753 0.276530 0.055000
0.292552 0.314119 0.055007
0.318981 0.353787 0.054997
0.326164 0.398337 0.054994
0.334960 0.445556 0.054999
0.334574 0.499237 0.055005
0.339257 0.555527 0.054997
0.338987 0.618108 0.054994
0.353785 0.681003 0.055010
0.383167 0.745835 0.055007
0.428297 0.805990 0.054982
0.505071 0.856656 0.055003
0.621512 0.898449 0.054985
0.788594 0.923418 0.055024
1.000000 0.927960 0.054998
0.000000 0.245964 0.054992
0.059143 0.252136 0.055000
0.113898 0.263649 0.054992
0.160303 0.285295 0.054993
0.201098 0.311359 0.055002
0.230227 0.345591 0.055000
0.254126 0.383191 0.055005
0.263473 0.428251 0.055000
0.273782 0.474797 0.055000
0.278181 0.528241 0.055001
0.286396 0.584628 0.054998
0.292340 0.647203 0.054995
0.314120 0.707462 0.055001
0.345589 0.769781 0.055002
0.393419 0.826457 0.054992
0.472443 0.874314 0.055005
0.593510 0.912713 0.055003
0.771854 0.937379 0.054991
1.000000 0.941313 0.054945
0.000000 0.305009 0.055003
0.042502 0.310678 0.055005
0.082414 0.321412 0.055013
0.117933 0.339645 0.054998
0.149501 0.362908 0.054997
0.173546 0.393415 0.054992
0.193989 0.428319 0.054999
0.204581 0.472448 0.055001
0.216722 0.517634 0.055013
0.226104 0.568816 0.055000
0.237768 0.623147 0.054999
0.250645 0.684409 0.054999
0.276533 0.740229 0.054998
0.311360 0.798903 0.055005
0.362906 0.850500 0.054993
0.444559 0.894125 0.055008
0.569188 0.927661 0.054984
0.757939 0.950499 0.055006
1.000000 0.953865 0.054967
0.000000 0.394731 0.055000
0.028727 0.398835 0.054993
0.056417 0.408566 0.054996
0.082311 0.423406 0.055010
0.105882 0.444545 0.055003
0.125674 0.472459 0.055004
0.143341 0.505072 0.054993
0.156415 0.547067 0.055013
0.169883 0.591163 0.054981
0.182421 0.639565 0.054995
0.198099 0.688492 0.054997
0.217777 0.741739 0.055004
0.247122 0.789647 0.054993
0.285291 0.839702 0.054995
0.339642 0.882057 0.054999
0.423406 0.917695 0.055013
0.549723 0.944267 0.054989
0.746450 0.963287 0.054968
1.000000 0.965763 0.055016
0.000000 0.524111 0.055006
0.019394 0.527370 0.054999
0.038038 0.536477 0.054994
0.055727 0.549697 0.054983
0.072324 0.569210 0.054996
0.087281 0.593518 0.055011
0.101557 0.621510 0.055008
0.114907 0.655839 0.054994
0.129518 0.692153 0.054993
0.145742 0.730835 0.055025
0.165739 0.770859 0.055005
0.190462 0.811015 0.055009
0.222434 0.848218 0.054997
0.263654 0.886103 0.054996
0.321415 0.917589 0.055012
0.408568 0.943584 0.054997
0.536475 0.961958 0.054993
0.739330 0.975601 0.055021
1.000000 0.977381 0.055052
0.000000 0.731137 0.055011
0.012295 0.732649 0.055000
0.024381 0.739373 0.055041
0.036706 0.746504 0.054964
0.049491 0.757972 0.055010
0.062621 0.771854 0.054994
0.076568 0.788571 0.055029
0.091467 0.810067 0.054996
0.108229 0.832306 0.054980
0.127305 0.853381 0.055026
0.149113 0.877463 0.055006
0.176903 0.899943 0.055002
0.209705 0.920202 0.055002
0.252142 0.940860 0.055000
0.310676 0.957500 0.055003
0.398839 0.971271 0.054996
0.527367 0.980608 0.054993
0.732635 0.987706 0.055004
1.000000 0.988873 0.054904
0.000000 1.000000 0.054731
0.011133 1.000000 0.054861
0.022614 1.000000 0.055054
0.034274 1.000000 0.055030
0.046106 1.000000 0.054981
0.058642 1.000000 0.054989
0.072012 1.000000 0.054971
0.086449 1.000000 0.055069
0.102860 1.000000 0.054975
0.121149 1.000000 0.055032
0.143732 1.000000 0.054998
0.170835 1.000000 0.054997
0.203981 1.000000 0.054994
0.245983 1.000000 0.055008
0.305006 1.000000 0.054988
0.394742 1.000000 0.055013
0.524114 1.000000 0.055001
0.731157 1.000000 0.055019
1.000000 1.000000 0.054808
0.000000 0.000000 0.109931
0.268802 0.000000 0.110030
0.475952 0.000000 0.110009
0.605272 0.000000 0.110000
0.694987 0.000000 0.109999
0.754035 0.000000 0.109997
0.795991 0.000000 0.109995
0.829153 0.000000 0.110009
0.856277 0.000000 0.109979
0.878824 0.000000 0.110025
0.897127 0.000000 0.109998
0.913569 0.000000 0.109981
0.927974 0.000000 0.110016
0.941260 0.000000 0.109974
0.953824 0.000000 0.109945
0.965676 0.000000 0.109996
0.977295 0.000000 0.109955