# vtk DataFile Version 2.0
Mesh for Fierro
ASCII 
DATASET UNSTRUCTURED_GRID

POINTS 2527 float
0.000000 0.000000 0.000000
0.080599 0.000000 0.000000
0.159208 0.000000 0.000000
0.235943 0.000000 0.000000
0.309743 0.000000 0.000000
0.380410 0.000000 0.000000
0.446576 0.000000 0.000000
0.507123 0.000000 0.000000
0.563945 0.000000 0.000000
0.617381 0.000000 0.000000
0.667303 0.000000 0.000000
0.714457 0.000000 0.000000
0.758872 0.000000 0.000000
0.802738 0.000000 0.000000
0.844309 0.000000 0.000000
0.885172 0.000000 0.000000
0.924108 0.000000 0.000000
0.962356 0.000000 0.000000
1.000000 0.000000 0.000000
0.000000 0.037644 0.000000
0.080274 0.038036 0.000000
0.158638 0.038968 0.000000
0.235087 0.040614 0.000000
0.308669 0.042740 0.000000
0.379235 0.045485 0.000000
0.445002 0.048504 0.000000
0.505486 0.051921 0.000000
0.562293 0.055616 0.000000
0.615590 0.059185 0.000000
0.665695 0.062904 0.000000
0.712797 0.066487 0.000000
0.757166 0.069901 0.000000
0.801198 0.072943 0.000000
0.843078 0.075567 0.000000
0.884145 0.077718 0.000000
0.923364 0.079314 0.000000
0.961963 0.080274 0.000000
1.000000 0.080599 0.000000
0.000000 0.075892 0.000000
0.079314 0.076636 0.000000
0.156711 0.078431 0.000000
0.232289 0.081577 0.000000
0.305073 0.085659 0.000000
0.375013 0.090946 0.000000
0.440629 0.096799 0.000000
0.500520 0.103514 0.000000
0.556857 0.110627 0.000000
0.610313 0.117658 0.000000
0.660357 0.124785 0.000000
0.707766 0.131748 0.000000
0.752661 0.138518 0.000000
0.797136 0.144370 0.000000
0.839661 0.149418 0.000000
0.881549 0.153652 0.000000
0.921569 0.156711 0.000000
0.961032 0.158638 0.000000
1.000000 0.159208 0.000000
0.000000 0.114828 0.000000
0.077718 0.115855 0.000000
0.153652 0.118451 0.000000
0.227808 0.122952 0.000000
0.299295 0.128872 0.000000
0.368406 0.136420 0.000000
0.433286 0.144950 0.000000
0.492372 0.154817 0.000000
0.548301 0.164990 0.000000
0.601577 0.175292 0.000000
0.651853 0.185746 0.000000
0.699518 0.195767 0.000000
0.744862 0.205671 0.000000
0.790230 0.214267 0.000000
0.833900 0.221624 0.000000
0.877048 0.227808 0.000000
0.918423 0.232289 0.000000
0.959386 0.235087 0.000000
1.000000 0.235943 0.000000
0.000000 0.155691 0.000000
0.075567 0.156922 0.000000
0.149418 0.160339 0.000000
0.221624 0.166100 0.000000
0.291442 0.173682 0.000000
0.359057 0.183101 0.000000
0.423080 0.193977 0.000000
0.481075 0.206383 0.000000
0.536362 0.219192 0.000000
0.589651 0.232488 0.000000
0.640136 0.245498 0.000000
0.688263 0.258354 0.000000
0.734654 0.271062 0.000000
0.781043 0.282036 0.000000
0.826318 0.291442 0.000000
0.871128 0.299295 0.000000
0.914341 0.305073 0.000000
0.957259 0.308669 0.000000
1.000000 0.309743 0.000000
0.000000 0.197262 0.000000
0.072943 0.198802 0.000000
0.144370 0.202864 0.000000
0.214267 0.209770 0.000000
0.282036 0.218957 0.000000
0.347972 0.230537 0.000000
0.410474 0.243566 0.000000
0.467465 0.258222 0.000000
0.521816 0.273640 0.000000
0.575035 0.289271 0.000000
0.626064 0.305307 0.000000
0.674214 0.320348 0.000000
0.721425 0.335037 0.000000
0.769463 0.347972 0.000000
0.816899 0.359057 0.000000
0.863580 0.368406 0.000000
0.909054 0.375013 0.000000
0.954515 0.379235 0.000000
1.000000 0.380410 0.000000
0.000000 0.241128 0.000000
0.069901 0.242834 0.000000
0.138518 0.247339 0.000000
0.205671 0.255138 0.000000
0.271062 0.265346 0.000000
0.335037 0.278575 0.000000
0.396639 0.293285 0.000000
0.451958 0.309943 0.000000
0.505300 0.327735 0.000000
0.558344 0.345192 0.000000
0.609685 0.363328 0.000000
0.658599 0.380673 0.000000
0.706715 0.396639 0.000000
0.756434 0.410474 0.000000
0.806023 0.423080 0.000000
0.855050 0.433286 0.000000
0.903201 0.440629 0.000000
0.951496 0.445002 0.000000
1.000000 0.446576 0.000000
0.000000 0.285543 0.000000
0.066487 0.287203 0.000000
0.131748 0.292234 0.000000
0.195767 0.300482 0.000000
0.258354 0.311737 0.000000
0.320348 0.325786 0.000000
0.380673 0.341401 0.000000
0.434401 0.359084 0.000000
0.486906 0.377602 0.000000
0.539926 0.396702 0.000000
0.591210 0.415757 0.000000
0.640916 0.434401 0.000000
0.690057 0.451958 0.000000
0.741778 0.467465 0.000000
0.793617 0.481075 0.000000
0.845183 0.492372 0.000000
0.896486 0.500520 0.000000
0.948078 0.505486 0.000000
1.000000 0.507123 0.000000
0.000000 0.332697 0.000000
0.062904 0.334305 0.000000
0.124785 0.339643 0.000000
0.185746 0.348147 0.000000
0.245498 0.359864 0.000000
0.305307 0.373936 0.000000
0.363328 0.390315 0.000000
0.415757 0.408790 0.000000
0.467762 0.427680 0.000000
0.520199 0.447725 0.000000
0.572320 0.467762 0.000000
0.622398 0.486906 0.000000
0.672265 0.505300 0.000000
0.726360 0.521816 0.000000
0.780808 0.536362 0.000000
0.835010 0.548301 0.000000
0.889373 0.556857 0.000000
0.944384 0.562293 0.000000
1.000000 0.563945 0.000000
0.000000 0.382619 0.000000
0.059185 0.384410 0.000000
0.117658 0.389687 0.000000
0.175292 0.398423 0.000000
0.232488 0.410349 0.000000
0.289271 0.424965 0.000000
0.345192 0.441656 0.000000
0.396702 0.460074 0.000000
0.447725 0.479801 0.000000
0.500000 0.500000 0.000000
0.552275 0.520199 0.000000
0.603298 0.539926 0.000000
0.654808 0.558344 0.000000
0.710729 0.575035 0.000000
0.767512 0.589651 0.000000
0.824708 0.601577 0.000000
0.882342 0.610313 0.000000
0.940815 0.615590 0.000000
1.000000 0.617381 0.000000
0.000000 0.436055 0.000000
0.055616 0.437707 0.000000
0.110627 0.443143 0.000000
0.164990 0.451699 0.000000
0.219192 0.463638 0.000000
0.273640 0.478184 0.000000
0.327735 0.494700 0.000000
0.377602 0.513094 0.000000
0.427680 0.532238 0.000000
0.479801 0.552275 0.000000
0.532238 0.572320 0.000000
0.584243 0.591210 0.000000
0.636672 0.609685 0.000000
0.694693 0.626064 0.000000
0.754502 0.640136 0.000000
0.814254 0.651853 0.000000
0.875215 0.660357 0.000000
0.937096 0.665695 0.000000
1.000000 0.667303 0.000000
0.000000 0.492877 0.000000
0.051921 0.494514 0.000000
0.103514 0.499480 0.000000
0.154817 0.507628 0.000000
0.206383 0.518925 0.000000
0.258222 0.532535 0.000000
0.309943 0.548042 0.000000
0.359084 0.565599 0.000000
0.408790 0.584243 0.000000
0.460074 0.603298 0.000000
0.513094 0.622398 0.000000
0.565599 0.640916 0.000000
0.619327 0.658599 0.000000
0.679652 0.674214 0.000000
0.741646 0.688263 0.000000
0.804233 0.699518 0.000000
0.868252 0.707766 0.000000
0.933513 0.712797 0.000000
1.000000 0.714457 0.000000
0.000000 0.553424 0.000000
0.048504 0.554998 0.000000
0.096799 0.559371 0.000000
0.144950 0.566714 0.000000
0.193977 0.576920 0.000000
0.243566 0.589526 0.000000
0.293285 0.603361 0.000000
0.341401 0.619327 0.000000
0.390315 0.636672 0.000000
0.441656 0.654808 0.000000
0.494700 0.672265 0.000000
0.548042 0.690057 0.000000
0.603361 0.706715 0.000000
0.664963 0.721425 0.000000
0.728938 0.734654 0.000000
0.794329 0.744862 0.000000
0.861482 0.752661 0.000000
0.930099 0.757166 0.000000
1.000000 0.758872 0.000000
0.000000 0.619590 0.000000
0.045485 0.620765 0.000000
0.090946 0.624987 0.000000
0.136420 0.631594 0.000000
0.183101 0.640943 0.000000
0.230537 0.652028 0.000000
0.278575 0.664963 0.000000
0.325786 0.679652 0.000000
0.373936 0.694693 0.000000
0.424965 0.710729 0.000000
0.478184 0.726360 0.000000
0.532535 0.741778 0.000000
0.589526 0.756434 0.000000
0.652028 0.769463 0.000000
0.717964 0.781043 0.000000
0.785733 0.790230 0.000000
0.855630 0.797136 0.000000
0.927057 0.801198 0.000000
1.000000 0.802738 0.000000
0.000000 0.690257 0.000000
0.042740 0.691331 0.000000
0.085659 0.694927 0.000000
0.128872 0.700705 0.000000
0.173682 0.708558 0.000000
0.218957 0.717964 0.000000
0.265346 0.728938 0.000000
0.311737 0.741646 0.000000
0.359864 0.754502 0.000000
0.410349 0.767512 0.000000
0.463638 0.780808 0.000000
0.518925 0.793617 0.000000
0.576920 0.806023 0.000000
0.640943 0.816899 0.000000
0.708558 0.826318 0.000000
0.778376 0.833900 0.000000
0.850582 0.839661 0.000000
0.924433 0.843078 0.000000
1.000000 0.844309 0.000000
0.000000 0.764057 0.000000
0.040614 0.764913 0.000000
0.081577 0.767711 0.000000
0.122952 0.772192 0.000000
0.166100 0.778376 0.000000
0.209770 0.785733 0.000000
0.255138 0.794329 0.000000
0.300482 0.804233 0.000000
0.348147 0.814254 0.000000
0.398423 0.824708 0.000000
0.451699 0.835010 0.000000
0.507628 0.845183 0.000000
0.566714 0.855050 0.000000
0.631594 0.863580 0.000000
0.700705 0.871128 0.000000
0.772192 0.877048 0.000000
0.846348 0.881549 0.000000
0.922281 0.884145 0.000000
1.000000 0.885172 0.000000
0.000000 0.840792 0.000000
0.038968 0.841362 0.000000
0.078431 0.843289 0.000000
0.118451 0.846348 0.000000
0.160339 0.850582 0.000000
0.202864 0.855630 0.000000
0.247339 0.861482 0.000000
0.292234 0.868252 0.000000
0.339643 0.875215 0.000000
0.389687 0.882342 0.000000
0.443143 0.889373 0.000000
0.499480 0.896486 0.000000
0.559371 0.903201 0.000000
0.624987 0.909054 0.000000
0.694927 0.914341 0.000000
0.767711 0.918423 0.000000
0.843289 0.921569 0.000000
0.920685 0.923363 0.000000
1.000000 0.924108 0.000000
0.000000 0.919400 0.000000
0.038036 0.919725 0.000000
0.076637 0.920685 0.000000
0.115855 0.922281 0.000000
0.156922 0.924433 0.000000
0.198802 0.927057 0.000000
0.242834 0.930099 0.000000
0.287203 0.933513 0.000000
0.334305 0.937096 0.000000
0.384410 0.940815 0.000000
0.437707 0.944384 0.000000
0.494514 0.948078 0.000000
0.554998 0.951496 0.000000
0.620765 0.954515 0.000000
0.691331 0.957259 0.000000
0.764913 0.959386 0.000000
0.841362 0.961032 0.000000
0.919725 0.961963 0.000000
1.000000 0.962356 0.000000
0.000000 1.000000 0.000000
0.037644 1.000000 0.000000
0.075892 1.000000 0.000000
0.114828 1.000000 0.000000
0.155691 1.000000 0.000000
0.197262 1.000000 0.000000
0.241128 1.000000 0.000000
0.285543 1.000000 0.000000
0.332697 1.000000 0.000000
0.382619 1.000000 0.000000
0.436055 1.000000 0.000000
0.492877 1.000000 0.000000
0.553424 1.000000 0.000000
0.619590 1.000000 0.000000
0.690257 1.000000 0.000000
0.764057 1.000000 0.000000
0.840792 1.000000 0.000000
0.919400 1.000000 0.000000
1.000000 1.000000 0.000000
0.000000 0.000000 0.055000
0.080599 0.000000 0.055000
0.159208 0.000000 0.055000
0.235943 0.000000 0.055000
0.309743 0.000000 0.055000
[...]
POINT_DATA 2527 
VECTORS pos float 
0.000000 0.000000 0.000000
0.080599 0.000000 0.000000
0.159208 0.000000 0.000000
0.235943 0.000000 0.000000
0.309743 0.000000 0.000000
0.380410 0.000000 0.000000
0.446576 0.000000 0.000000
0.507123 0.000000 0.000000
0.563945 0.000000 0.000000
0.617381 0.000000 0.000000
0.667303 0.000000 0.000000
0.714457 0.000000 0.000000
0.758872 0.000000 0.000000
0.802738 0.000000 0.000000
0.844309 0.000000 0.000000
0.885172 0.000000 0.000000
0.924108 0.000000 0.000000
0.962356 0.000000 0.000000
1.000000 0.000000 0.000000
0.000000 0.037644 0.000000
0.080274 0.038036 0.000000
0.158638 0.038968 0.000000
0.235087 0.040614 0.000000
0.308669 0.042740 0.000000
0.379235 0.045485 0.000000
0.445002 0.048504 0.000000
0.505486 0.051921 0.000000
0.562293 0.055616 0.000000
0.615590 0.059185 0.000000
0.665695 0.062904 0.000000
0.712797 0.066487 0.000000
0.757166 0.069901 0.000000
0.801198 0.072943 0.000000
0.843078 0.075567 0.000000
0.884145 0.077718 0.000000
0.923364 0.079314 0.000000
0.961963 0.080274 0.000000
1.000000 0.080599 0.000000
0.000000 0.075892 0.000000
0.079314 0.076636 0.000000
0.156711 0.078431 0.000000
0.232289 0.081577 0.000000
0.305073 0.085659 0.000000
0.375013 0.090946 0.000000
0.440629 0.096799 0.000000
0.500520 0.103514 0.000000
0.556857 0.110627 0.000000
0.610313 0.117658 0.000000
0.660357 0.124785 0.000000
0.707766 0.131748 0.000000
0.752661 0.138518 0.000000
0.797136 0.144370 0.000000
0.839661 0.149418 0.000000
0.881549 0.153652 0.000000
0.921569 0.156711 0.000000
0.961032 0.158638 0.000000
1.000000 0.159208 0.000000
0.000000 0.114828 0.000000
0.077718 0.115855 0.000000
0.153652 0.118451 0.000000
0.227808 0.122952 0.000000
0.299295 0.128872 0.000000
0.368406 0.136420 0.000000
0.433286 0.144950 0.000000
0.492372 0.154817 0.000000
0.548301 0.164990 0.000000
0.601577 0.175292 0.000000
0.651853 0.185746 0.000000
0.699518 0.195767 0.000000
0.744862 0.205671 0.000000
0.790230 0.214267 0.000000
0.833900 0.221624 0.000000
0.877048 0.227808 0.000000
0.918423 0.232289 0.000000
0.959386 0.235087 0.000000
1.000000 0.235943 0.000000
0.000000 0.155691 0.000000
0.075567 0.156922 0.000000
0.149418 0.160339 0.000000
0.221624 0.166100 0.000000
0.291442 0.173682 0.000000
0.359057 0.183101 0.000000
0.423080 0.193977 0.000000
0.481075 0.206383 0.000000
0.536362 0.219192 0.000000
0.589651 0.232488 0.000000
0.640136 0.245498 0.000000
0.688263 0.258354 0.000000
0.734654 0.271062 0.000000
0.781043 0.282036 0.000000
0.826318 0.291442 0.000000
0.871128 0.299295 0.000000
0.914341 0.305073 0.000000
0.957259 0.308669 0.000000
1.000000 0.309743 0.000000
0.000000 0.197262 0.000000
0.072943 0.198802 0.000000
0.144370 0.202864 0.000000
0.214267 0.209770 0.000000
0.282036 0.218957 0.000000
0.347972 0.230537 0.000000
0.410474 0.243566 0.000000
0.467465 0.258222 0.000000
0.521816 0.273640 0.000000
0.575035 0.289271 0.000000
0.626064 0.305307 0.000000
0.674214 0.320348 0.000000
0.721425 0.335037 0.000000
0.769463 0.347972 0.000000
0.816899 0.359057 0.000000
0.863580 0.368406 0.000000
0.909054 0.375013 0.000000
0.954515 0.379235 0.000000
1.000000 0.380410 0.000000
0.000000 0.241128 0.000000
0.069901 0.242834 0.000000
0.138518 0.247339 0.000000
0.205671 0.255138 0.000000
0.271062 0.265346 0.000000
0.335037 0.278575 0.000000
0.396639 0.293285 0.000000
0.451958 0.309943 0.000000
0.505300 0.327735 0.000000
0.558344 0.345192 0.000000
0.609685 0.363328 0.000000
0.658599 0.380673 0.000000
0.706715 0.396639 0.000000
0.756434 0.410474 0.000000
0.806023 0.423080 0.000000
0.855050 0.433286 0.000000
0.903201 0.440629 0.000000
0.951496 0.445002 0.000000
1.000000 0.446576 0.000000
0.000000 0.285543 0.000000
0.066487 0.287203 0.000000
0.131748 0.292234 0.000000
0.195767 0.300482 0.000000
0.258354 0.311737 0.000000
0.320348 0.325786 0.000000
0.380673 0.341401 0.000000
0.434401 0.359084 0.000000
0.486906 0.377602 0.000000
0.539926 0.396702 0.000000
0.591210 0.415757 0.000000
0.640916 0.434401 0.000000
0.690057 0.451958 0.000000
0.741778 0.467465 0.000000
0.793617 0.481075 0.000000
0.845183 0.492372 0.000000
0.896486 0.500520 0.000000
0.948078 0.505486 0.000000
1.000000 0.507123 0.000000
0.000000 0.332697 0.000000
0.062904 0.334305 0.000000
0.124785 0.339643 0.000000
0.185746 0.348147 0.000000
0.245498 0.359864 0.000000
0.305307 0.373936 0.000000
0.363328 0.390315 0.000000
0.415757 0.408790 0.000000
0.467762 0.427680 0.000000
0.520199 0.447725 0.000000
0.572320 0.467762 0.000000
0.622398 0.486906 0.000000
0.672265 0.505300 0.000000
0.726360 0.521816 0.000000
0.780808 0.536362 0.000000
0.835010 0.548301 0.000000
0.889373 0.556857 0.000000
0.944384 0.562293 0.000000
1.000000 0.563945 0.000000
0.000000 0.382619 0.000000
0.059185 0.384410 0.000000
0.117658 0.389687 0.000000
0.175292 0.398423 0.000000
0.232488 0.410349 0.000000
0.289271 0.424965 0.000000
0.345192 0.441656 0.000000
0.396702 0.460074 0.000000
0.447725 0.479801 0.000000
0.500000 0.500000 0.000000
0.552275 0.520199 0.000000
0.603298 0.539926 0.000000
0.654808 0.558344 0.000000
0.710729 0.575035 0.000000
0.767512 0.589651 0.000000
0.824708 0.601577 0.000000
0.882342 0.610313 0.000000
0.940815 0.615590 0.000000
1.000000 0.617381 0.000000
0.000000 0.436055 0.000000
0.055616 0.437707 0.000000
0.110627 0.443143 0.000000
0.164990 0.451699 0.000000
0.219192 0.463638 0.000000
0.273640 0.478184 0.000000
0.327735 0.494700 0.000000
0.377602 0.513094 0.000000
0.427680 0.532238 0.000000
0.479801 0.552275 0.000000
0.532238 0.572320 0.000000
0.584243 0.591210 0.000000
0.636672 0.609685 0.000000
0.694693 0.626064 0.000000
0.754502 0.640136 0.000000
0.814254 0.651853 0.000000
0.875215 0.660357 0.000000
0.937096 0.665695 0.000000
1.000000 0.667303 0.000000
0.000000 0.492877 0.000000
0.051921 0.494514 0.000000
0.103514 0.499480 0.000000
0.154817 0.507628 0.000000
0.206383 0.518925 0.000000
0.258222 0.532535 0.000000
0.309943 0.548042 0.000000
0.359084 0.565599 0.000000
0.408790 0.584243 0.000000
0.460074 0.603298 0.000000
0.513094 0.622398 0.000000
0.565599 0.640916 0.000000
0.619327 0.658599 0.000000
0.679652 0.674214 0.000000
0.741646 0.688263 0.000000
0.804233 0.699518 0.000000
0.868252 0.707766 0.000000
0.933513 0.712797 0.000000
1.000000 0.714457 0.000000
0.000000 0.553424 0.000000
0.048504 0.554998 0.000000
0.096799 0.559371 0.000000
0.144950 0.566714 0.000000
0.193977 0.576920 0.000000
0.243566 0.589526 0.000000
0.293285 0.603361 0.000000
0.341401 0.619327 0.000000
0.390315 0.636672 0.000000
0.441656 0.654808 0.000000
0.494700 0.672265 0.000000
0.548042 0.690057 0.000000
0.603361 0.706715 0.000000
0.664963 0.721425 0.000000
0.728938 0.734654 0.000000
0.794329 0.744862 0.000000
0.861482 0.752661 0.000000
0.930099 0.757166 0.000000
1.000000 0.758872 0.000000
0.000000 0.619590 0.000000
0.045485 0.620765 0.000000
0.090946 0.624987 0.000000
0.136420 0.631594 0.000000
0.183101 0.640943 0.000000
0.230537 0.652028 0.000000
0.278575 0.664963 0.000000
0.325786 0.679652 0.000000
0.373936 0.694693 0.000000
0.424965 0.710729 0.000000
0.478184 0.726360 0.000000
0.532535 0.741778 0.000000
0.589526 0.756434 0.000000
0.652028 0.769463 0.000000
0.717964 0.781043 0.000000
0.785733 0.790230 0.000000
0.855630 0.797136 0.000000
0.927057 0.801198 0.000000
1.000000 0.802738 0.000000
0.000000 0.690257 0.000000
0.042740 0.691331 0.000000
0.085659 0.694927 0.000000
0.128872 0.700705 0.000000
0.173682 0.708558 0.000000
0.218957 0.717964 0.000000
0.265346 0.728938 0.000000
0.311737 0.741646 0.000000
0.359864 0.754502 0.000000
0.410349 0.767512 0.000000
0.463638 0.780808 0.000000
0.518925 0.793617 0.000000
0.576920 0.806023 0.000000
0.640943 0.816899 0.000000
0.708558 0.826318 0.000000
0.778376 0.833900 0.000000
0.850582 0.839661 0.000000
0.924433 0.843078 0.000000
1.000000 0.844309 0.000000
0.000000 0.764057 0.000000
0.040614 0.764913 0.000000
0.081577 0.767711 0.000000
0.122952 0.772192 0.000000
0.166100 0.778376 0.000000
0.209770 0.785733 0.000000
0.255138 0.794329 0.000000
0.300482 0.804233 0.000000
0.348147 0.814254 0.000000
0.398423 0.824708 0.000000
0.451699 0.835010 0.000000
0.507628 0.845183 0.000000
0.566714 0.855050 0.000000
0.631594 0.863580 0.000000
0.700705 0.871128 0.000000
0.772192 0.877048 0.000000
0.846348 0.881549 0.000000
0.922281 0.884145 0.000000
1.000000 0.885172 0.000000
0.000000 0.840792 0.000000
0.038968 0.841362 0.000000
0.078431 0.843289 0.000000
0.118451 0.846348 0.000000
0.160339 0.850582 0.000000
0.202864 0.855630 0.000000
0.247339 0.861482 0.000000
0.292234 0.868252 0.000000
0.339643 0.875215 0.000000
0.389687 0.882342 0.000000
0.443143 0.889373 0.000000
0.499480 0.896486 0.000000
0.559371 0.903201 0.000000
0.624987 0.909054 0.000000
0.694927 0.914341 0.000000
0.767711 0.918423 0.000000
0.843289 0.921569 0.000000
0.920685 0.923363 0.000000
1.000000 0.924108 0.000000
0.000000 0.919400 0.000000
0.038036 0.919725 0.000000
0.076637 0.920685 0.000000
0.115855 0.922281 0.000000
0.156922 0.924433 0.000000
0.198802 0.927057 0.000000
0.242834 0.930099 0.000000
0.287203 0.933513 0.000000
0.334305 0.937096 0.000000
0.384410 0.940815 0.000000
0.437707 0.944384 0.000000
0.494514 0.948078 0.000000
0.554998 0.951496 0.000000
0.620765 0.954515 0.000000
0.691331 0.957259 0.000000
0.764913 0.959386 0.000000
0.841362 0.961032 0.000000
0.919725 0.961963 0.000000
1.000000 0.962356 0.000000
0.000000 1.000000 0.000000
0.037644 1.000000 0.000000
0.075892 1.000000 0.000000
0.114828 1.000000 0.000000
0.155691 1.000000 0.000000
0.197262 1.000000 0.000000
0.241128 1.000000 0.000000
0.285543 1.000000 0.000000
0.332697 1.000000 0.000000
0.382619 1.000000 0.000000
0.436055 1.000000 0.000000
0.492877 1.000000 0.000000
0.553424 1.000000 0.000000
0.619590 1.000000 0.000000
0.690257 1.000000 0.000000
0.764057 1.000000 0.000000
0.840792 1.000000 0.000000
0.919400 1.000000 0.000000
1.000000 1.000000 0.000000
0.000000 0.000000 0.055000
0.080599 0.000000 0.055000
0.159208 0.000000 0.055000
0.235943 0.000000 0.055000
0.309743 0.000000 0.055000
0.380410 0.000000 0.055000
0.446576 0.000000 0.055000
0.507123 0.000000 0.055000
0.563945 0.000000 0.055000
0.617381 0.000000 0.055000
0.667303 0.000000 0.055000
0.714457 0.000000 0.055000
0.758872 0.000000 0.055000
0.802738 0.000000 0.055000
0.844309 0.000000 0.055000
0.885172 0.000000 0.055000
0.924108 0.000000 0.055000
0.962356 0.000000 0.055000
1.000000 0.000000 0.055000
0.000000 0.037644 0.055000
0.080274 0.038036 0.055000
0.158638 0.038968 0.055000
0.235087 0.040614 0.055000
0.308669 0.042740 0.055000
0.379235 0.045485 0.055000
0.445002 0.048504 0.055000
0.505486 0.051921 0.055000
0.562293 0.055616 0.055000
0.615590 0.059185 0.055000
0.665695 0.062904 0.055000
0.712797 0.066487 0.055000
0.757166 0.069901 0.055000
0.801198 0.072943 0.055000
0.843078 0.075567 0.055000
0.884145 0.077718 0.055000
0.923364 0.079314 0.055000
0.961963 0.080274 0.055000
1.000000 0.080599 0.055000
0.000000 0.075892 0.055000
0.079314 0.076636 0.055000
0.156711 0.078431 0.055000
0.232289 0.081577 0.055000
0.305073 0.085659 0.055000
0.375013 0.090946 0.055000
0.440629 0.096799 0.055000
0.500520 0.103514 0.055000
0.556857 0.110627 0.055000
0.610313 0.117658 0.055000
0.660357 0.124785 0.055000
0.707766 0.131748 0.055000
0.752661 0.138518 0.055000
0.797136 0.144370 0.055000
0.839661 0.149418 0.055000
0.881549 0.153652 0.055000
0.921569 0.156711 0.055000
0.961032 0.158638 0.055000
1.000000 0.159208 0.055000
0.000000 0.114828 0.055000
0.077718 0.115855 0.055000
0.153652 0.118451 0.055000
0.227808 0.122952 0.055000
0.299295 0.128872 0.055000
0.368406 0.136420 0.055000
0.433286 0.144950 0.055000
0.492372 0.154817 0.055000
0.548301 0.164990 0.055000
0.601577 0.175292 0.055000
0.651853 0.185746 0.055000
0.699518 0.195767 0.055000
0.744862 0.205671 0.055000
0.790230 0.214267 0.055000
0.833900 0.221624 0.055000
0.877048 0.227808 0.055000
0.918423 0.232289 0.055000
0.959386 0.235087 0.055000
1.000000 0.235943 0.055000
0.000000 0.155691 0.055000
0.075567 0.156922 0.055000
0.149418 0.160339 0.055000
0.221624 0.166100 0.055000
0.291442 0.173682 0.055000
0.359057 0.183101 0.055000
0.423080 0.193977 0.055000
0.481075 0.206383 0.055000
0.536362 0.219192 0.055000
0.589651 0.232488 0.055000
0.640136 0.245498 0.055000
0.688263 0.258354 0.055000
0.734654 0.271062 0.055000
0.781043 0.282036 0.055000
0.826318 0.291442 0.055000
0.871128 0.299295 0.055000
0.914341 0.305073 0.055000
0.957259 0.308669 0.055000
1.000000 0.309743 0.055000
0.000000 0.197262 0.055000
0.072943 0.198802 0.055000
0.144370 0.202864 0.055000
0.214267 0.209770 0.055000
0.282036 0.218957 0.055000
0.347972 0.230537 0.055000
0.410474 0.243566 0.055000
0.467465 0.258222 0.055000
0.521816 0.273640 0.055000
0.575035 0.289271 0.055000
0.626064 0.305307 0.055000
0.674214 0.320348 0.055000
0.721425 0.335037 0.055000
0.769463 0.347972 0.055000
0.816899 0.359057 0.055000
0.863580 0.368406 0.055000
0.909054 0.375013 0.055000
0.954515 0.379235 0.055000
1.000000 0.380410 0.055000
0.000000 0.241128 0.055000
0.069901 0.242834 0.055000
0.138518 0.247339 0.055000
0.205671 0.255138 0.055000
0.271062 0.265346 0.055000
0.335037 0.278575 0.055000
0.396639 0.293285 0.055000
0.451958 0.309943 0.055000
0.505300 0.327735 0.055000
0.558344 0.345192 0.055000
0.609685 0.363328 0.055000
0.658599 0.380673 0.055000
0.706715 0.396639 0.055000
0.756434 0.410474 0.055000
0.806023 0.423080 0.055000
0.855050 0.433286 0.055000
0.903201 0.440629 0.055000
0.951496 0.445002 0.055000
1.000000 0.446576 0.055000
0.000000 0.285543 0.055000
0.066487 0.287203 0.055000
0.131748 0.292234 0.055000
0.195767 0.300482 0.055000
0.258354 0.311737 0.055000
0.320348 0.325786 0.055000
0.380673 0.341401 0.055000
0.434401 0.359084 0.055000
0.486906 0.377602 0.055000
0.539926 0.396702 0.055000
0.591210 0.415757 0.055000
0.640916 0.434401 0.055000
0.690057 0.451958 0.055000
0.741778 0.467465 0.055000
0.793617 0.481075 0.055000
0.845183 0.492372 0.055000
0.896486 0.500520 0.055000
0.948078 0.505486 0.055000
1.000000 0.507123 0.055000
0.000000 0.332697 0.055000
0.062904 0.334305 0.055000
0.124785 0.339643 0.055000
0.185746 0.348147 0.055000
0.245498 0.359864 0.055000
0.305307 0.373936 0.055000
0.363328 0.390315 0.055000
0.415757 0.408790 0.055000
0.467762 0.427680 0.055000
0.520199 0.447725 0.055000
0.572320 0.467762 0.055000
0.622398 0.486906 0.055000
0.672265 0.505300 0.055000
0.726360 0.521816 0.055000
0.780808 0.536362 0.055000
0.835010 0.548301 0.055000
0.889373 0.556857 0.055000
0.944384 0.562293 0.055000
1.000000 0.563945 0.055000
0.000000 0.382619 0.055000
0.059185 0.384410 0.055000
0.117658 0.389687 0.055000
0.175292 0.398423 0.055000
0.232488 0.410349 0.055000
0.289271 0.424965 0.055000
0.345192 0.441656 0.055000
0.396702 0.460074 0.055000
0.447725 0.479801 0.055000
0.500000 0.500000 0.055000
0.552275 0.520199 0.055000
0.603298 0.539926 0.055000
0.654808 0.558344 0.055000
0.710729 0.575035 0.055000
0.767512 0.589651 0.055000
0.824708 0.601577 0.055000
0.882342 0.610313 0.055000
0.940815 0.615590 0.055000
1.000000 0.617381 0.055000
0.000000 0.436055 0.055000
0.055616 0.437707 0.055000
0.110627 0.443143 0.055000
0.164990 0.451699 0.055000
0.219192 0.463638 0.055000
0.273640 0.478184 0.055000
0.327735 0.494700 0.055000
0.377602 0.513094 0.055000
0.427680 0.532238 0.055000
0.479801 0.552275 0.055000
0.532238 0.572320 0.055000
0.584243 0.591210 0.055000
0.636672 0.609685 0.055000
0.694693 0.626064 0.055000
0.754502 0.640136 0.055000
0.814254 0.651853 0.055000
0.875215 0.660357 0.055000
0.937096 0.665695 0.055000
1.000000 0.667303 0.055000
0.000000 0.492877 0.055000
0.051921 0.494514 0.055000
0.103514 0.499480 0.055000
0.154817 0.507628 0.055000
0.206383 0.518925 0.055000
0.258222 0.532535 0.055000
0.309943 0.548042 0.055000
0.359084 0.565599 0.055000
0.408790 0.584243 0.055000
0.460074 0.603298 0.055000
0.513094 0.622398 0.055000
0.565599 0.640916 0.055000
0.619327 0.658599 0.055000
0.679652 0.674214 0.055000
0.741646 0.688263 0.055000
0.804233 0.699518 0.055000
0.868252 0.707766 0.055000
0.933513 0.712797 0.055000
1.000000 0.714457 0.055000
0.000000 0.553424 0.055000
0.048504 0.554998 0.055000
0.096799 0.559371 0.055000
0.144950 0.566714 0.055000
0.193977 0.576920 0.055000
0.243566 0.589526 0.055000
0.293285 0.603361 0.055000
0.341401 0.619327 0.055000
0.390315 0.636672 0.055000
0.441656 0.654808 0.055000
0.494700 0.672265 0.055000
0.548042 0.690057 0.055000
0.603361 0.706715 0.055000
0.664963 0.721425 0.055000
0.728938 0.734654 0.055000
0.794329 0.744862 0.055000
0.861482 0.752661 0.055000
0.930099 0.757166 0.055000
1.000000 0.758872 0.055000
0.000000 0.619590 0.055000
0.045485 0.620765 0.055000
0.090946 0.624987 0.055000
0.136420 0.631594 0.055000
0.183101 0.640943 0.055000
0.230537 0.652028 0.055000
0.278575 0.664963 0.055000
0.325786 0.679652 0.055000
0.373936 0.694693 0.055000
0.424965 0.710729 0.055000
0.478184 0.726360 0.055000
0.532535 0.741778 0.055000
0.589526 0.756434 0.055000
0.652028 0.769463 0.055000
0.717964 0.781043 0.055000
0.785733 0.790230 0.055000
0.855630 0.797136 0.055000
0.927057 0.801198 0.055000
1.000000 0.802738 0.055000
0.000000 0.690257 0.055000
0.042740 0.691331 0.055000
0.085659 0.694927 0.055000
0.128872 0.700705 0.055000
0.173682 0.708558 0.055000
0.218957 0.717964 0.055000
0.265346 0.728938 0.055000
0.311737 0.741646 0.055000
0.359864 0.754502 0.055000
0.410349 0.767512 0.055000
0.463638 0.780808 0.055000
0.518925 0.793617 0.055000
0.576920 0.806023 0.055000
0.640943 0.816899 0.055000
0.708558 0.826318 0.055000
0.778376 0.833900 0.055000
0.850582 0.839661 0.055000
0.924433 0.843078 0.055000
1.000000 0.844309 0.055000
0.000000 0.764057 0.055000
0.040614 0.764913 0.055000
0.081577 0.767711 0.055000
0.122952 0.772192 0.055000
0.166100 0.778376 0.055000
0.209770 0.785733 0.055000
0.255138 0.794329 0.055000
0.300482 0.804233 0.055000
0.348147 0.814254 0.055000
0.398423 0.824708 0.055000
0.451699 0.835010 0.055000
0.507628 0.845183 0.055000
0.566714 0.855050 0.055000
0.631594 0.863580 0.055000
0.700705 0.871128 0.055000
0.772192 0.877048 0.055000
0.846348 0.881549 0.055000
0.922281 0.884145 0.055000
1.000000 0.885172 0.055000
0.000000 0.840792 0.055000
0.038968 0.841362 0.055000
0.078431 0.843289 0.055000
0.118451 0.846348 0.055000
0.160339 0.850582 0.055000
0.202864 0.855630 0.055000
0.247339 0.861482 0.055000
0.292234 0.868252 0.055000
0.339643 0.875215 0.055000
0.389687 0.882342 0.055000
0.443143 0.889373 0.055000
0.499480 0.896486 0.055000
0.559371 0.903201 0.055000
0.624987 0.909054 0.055000
0.694927 0.914341 0.055000
0.767711 0.918423 0.055000
0.843289 0.921569 0.055000
0.920685 0.923363 0.055000
1.000000 0.924108 0.055000
0.000000 0.919400 0.055000
0.038036 0.919725 0.055000
0.076637 0.920685 0.055000
0.115855 0.922281 0.055000
0.156922 0.924433 0.055000
0.198802 0.927057 0.055000
0.242834 0.930099 0.055000
0.287203 0.933513 0.055000
0.334305 0.937096 0.055000
0.384410 0.940815 0.055000
0.437707 0.944384 0.055000
0.494514 0.948078 0.055000
0.554998 0.951496 0.055000
0.620765 0.954515 0.055000
0.691331 0.957259 0.055000
0.764913 0.959386 0.055000
0.841362 0.961032 0.055000
0.919725 0.961963 0.055000
1.000000 0.962356 0.055000
0.000000 1.000000 0.055000
0.037644 1.000000 0.055000
0.075892 1.000000 0.055000
0.114828 1.000000 0.055000
0.155691 1.000000 0.055000
0.197262 1.000000 0.055000
0.241128 1.000000 0.055000
0.285543 1.000000 0.055000
0.332697 1.000000 0.055000
0.382619 1.000000 0.055000
0.436055 1.000000 0.055000
0.492877 1.000000 0.055000
0.553424 1.000000 0.055000
0.619590 1.000000 0.055000
0.690257 1.000000 0.055000
0.764057 1.000000 0.055000
0.840792 1.000000 0.055000
0.919400 1.000000 0.055000
1.000000 1.000000 0.055000
0.000000 0.000000 0.110000
0.080599 0.000000 0.110000
0.159208 0.000000 0.110000
0.235943 0.000000 0.110000
0.309743 0.000000 0.110000
0.380410 0.000000 0.110000
0.446576 0.000000 0.110000
0.507123 0.000000 0.110000
0.563945 0.000000 0.110000
0.617381 0.000000 0.110000
0.667303 0.000000 0.110000
0.714457 0.000000 0.110000
0.758872 0.000000 0.110000
0.802738 0.000000 0.110000
0.844309 0.000000 0.110000
0.885172 0.000000 0.110000
0.924108 0.000000 0.110000