# vtk DataFile Version 2.0
Mesh for Fierro
ASCII 
DATASET UNSTRUCTURED_GRID

POINTS 2527 float
0.000000 0.000000 0.000000
0.390380 0.000000 0.000000
0.638579 0.000000 0.000000
0.734423 0.000000 0.000000
0.806168 0.000000 0.000000
0.845549 0.000000 0.000000
0.873219 0.000000 0.000000
0.894272 0.000000 0.000000
0.911732 0.000000 0.000000
0.925333 0.000000 0.000000
0.936696 0.000000 0.000000
0.946511 0.000000 0.000000
0.954747 0.000000 0.000000
0.962431 0.000000 0.000000
0.969855 0.000000 0.000000
0.977335 0.000000 0.000000
0.984822 0.000000 0.000000
0.992471 0.000000 0.000000
1.000000 0.000000 0.000000
0.000000 0.007586 0.000000
0.389223 0.008664 0.000000
0.632588 0.022395 0.000000
0.730058 0.036719 0.000000
0.802274 0.059298 0.000000
0.841614 0.092459 0.000000
0.869631 0.127152 0.000000
0.889376 0.159895 0.000000
0.905665 0.193900 0.000000
0.918759 0.229578 0.000000
0.929984 0.260644 0.000000
0.939809 0.292633 0.000000
0.948508 0.322422 0.000000
0.957271 0.343933 0.000000
0.965759 0.361486 0.000000
0.974325 0.374542 0.000000
0.982835 0.382060 0.000000
0.991335 0.389284 0.000000
1.000000 0.390253 0.000000
0.000000 0.015214 0.000000
0.382009 0.017145 0.000000
0.621183 0.042894 0.000000
0.724079 0.071485 0.000000
0.791527 0.113058 0.000000
0.828673 0.168654 0.000000
0.853038 0.229513 0.000000
0.870908 0.282918 0.000000
0.882999 0.338260 0.000000
0.890964 0.390955 0.000000
0.896224 0.438965 0.000000
0.900262 0.482466 0.000000
0.904932 0.521665 0.000000
0.913772 0.553306 0.000000
0.924595 0.581434 0.000000
0.939448 0.604030 0.000000
0.957128 0.621081 0.000000
0.977606 0.632592 0.000000
1.000000 0.638625 0.000000
0.000000 0.022690 0.000000
0.374539 0.025655 0.000000
0.604027 0.060566 0.000000
0.709785 0.101421 0.000000
0.771799 0.159001 0.000000
0.805041 0.226344 0.000000
0.821682 0.301662 0.000000
0.835306 0.361783 0.000000
0.836782 0.429515 0.000000
0.836781 0.486656 0.000000
0.834654 0.541650 0.000000
0.836743 0.589201 0.000000
0.840710 0.632843 0.000000
0.854492 0.664621 0.000000
0.872497 0.691984 0.000000
0.898567 0.709803 0.000000
0.928519 0.724077 0.000000
0.963259 0.730046 0.000000
1.000000 0.734435 0.000000
0.000000 0.030167 0.000000
0.361558 0.034230 0.000000
0.581468 0.075461 0.000000
0.691993 0.127499 0.000000
0.746766 0.196634 0.000000
0.777401 0.272695 0.000000
0.784308 0.356413 0.000000
0.793277 0.422245 0.000000
0.782247 0.493211 0.000000
0.776055 0.549803 0.000000
0.768269 0.600295 0.000000
0.767735 0.642721 0.000000
0.765711 0.682089 0.000000
0.780961 0.715676 0.000000
0.803346 0.746788 0.000000
0.841019 0.771770 0.000000
0.886938 0.791515 0.000000
0.940725 0.802282 0.000000
1.000000 0.806199 0.000000
0.000000 0.037604 0.000000
0.343848 0.042725 0.000000
0.553255 0.086241 0.000000
0.664594 0.145491 0.000000
0.715698 0.219024 0.000000
0.742635 0.298388 0.000000
0.743561 0.381314 0.000000
0.746285 0.449586 0.000000
0.725874 0.514110 0.000000
0.712612 0.568906 0.000000
0.696993 0.618469 0.000000
0.691155 0.662908 0.000000
0.685232 0.704373 0.000000
0.701591 0.742644 0.000000
0.727321 0.777375 0.000000
0.773653 0.805052 0.000000
0.831351 0.828690 0.000000
0.907500 0.841622 0.000000
1.000000 0.845561 0.000000
0.000000 0.045378 0.000000
0.322506 0.051511 0.000000
0.521677 0.095109 0.000000
0.632868 0.159306 0.000000
0.682096 0.234315 0.000000
0.704357 0.314715 0.000000
0.701690 0.395915 0.000000
0.695298 0.464237 0.000000
0.666089 0.522511 0.000000
0.648276 0.575130 0.000000
0.624780 0.620935 0.000000
0.616614 0.663268 0.000000
0.604069 0.701696 0.000000
0.618657 0.743596 0.000000
0.643666 0.784350 0.000000
0.698382 0.821728 0.000000
0.770430 0.853053 0.000000
0.872758 0.869571 0.000000
1.000000 0.873154 0.000000
0.000000 0.053572 0.000000
0.292568 0.060193 0.000000
0.482376 0.099728 0.000000
0.589239 0.163251 0.000000
0.642683 0.232275 0.000000
0.662903 0.308851 0.000000
0.663262 0.383392 0.000000
0.651803 0.448708 0.000000
0.622362 0.502425 0.000000
0.596257 0.555990 0.000000
0.568532 0.603696 0.000000
0.551274 0.651784 0.000000
0.535748 0.695270 0.000000
0.550406 0.746274 0.000000
0.577720 0.793282 0.000000
0.638245 0.835295 0.000000
0.717122 0.870988 0.000000
0.840141 0.889305 0.000000
1.000000 0.893953 0.000000
0.000000 0.063343 0.000000
0.260595 0.070053 0.000000
0.439007 0.103800 0.000000
0.541665 0.165357 0.000000
0.600277 0.231680 0.000000
0.618439 0.302999 0.000000
0.620949 0.375161 0.000000
0.603711 0.431475 0.000000
0.576147 0.480675 0.000000
0.548049 0.530106 0.000000
0.519328 0.576176 0.000000
0.497556 0.622353 0.000000
0.477414 0.666073 0.000000
0.485921 0.725887 0.000000
0.506759 0.782275 0.000000
0.570494 0.836781 0.000000
0.661533 0.882975 0.000000
0.805965 0.905690 0.000000
1.000000 0.911501 0.000000
0.000000 0.074748 0.000000
0.229679 0.081245 0.000000
0.390876 0.108991 0.000000
0.486665 0.163209 0.000000
0.549839 0.224009 0.000000
0.568887 0.287358 0.000000
0.575171 0.351797 0.000000
0.555982 0.403781 0.000000
0.530077 0.451956 0.000000
0.499991 0.500022 0.000000
0.469887 0.548059 0.000000
0.444009 0.596246 0.000000
0.424889 0.648244 0.000000
0.431121 0.712646 0.000000
0.450139 0.776023 0.000000
0.513262 0.836731 0.000000
0.609038 0.891005 0.000000
0.770186 0.918687 0.000000
1.000000 0.925075 0.000000
0.000000 0.088357 0.000000
0.194053 0.094374 0.000000
0.338429 0.117049 0.000000
0.429534 0.163215 0.000000
0.493192 0.217694 0.000000
0.514109 0.274133 0.000000
0.522584 0.333920 0.000000
0.502434 0.377624 0.000000
0.480644 0.423847 0.000000
0.451976 0.469913 0.000000
0.423839 0.519332 0.000000
0.396276 0.568558 0.000000
0.379032 0.624787 0.000000
0.381600 0.697013 0.000000
0.399658 0.768329 0.000000
0.458416 0.834694 0.000000
0.560927 0.896247 0.000000
0.739293 0.929945 0.000000
1.000000 0.936314 0.000000
0.000000 0.105788 0.000000
0.159892 0.110615 0.000000
0.282962 0.129062 0.000000
0.361804 0.164700 0.000000
0.422269 0.206711 0.000000
0.449557 0.253707 0.000000
0.464250 0.304704 0.000000
0.448749 0.348190 0.000000
0.431451 0.396292 0.000000
0.403751 0.444015 0.000000
0.377654 0.497570 0.000000
0.348198 0.551283 0.000000
0.336747 0.616630 0.000000
0.337097 0.691128 0.000000
0.357295 0.767757 0.000000
0.410758 0.836759 0.000000
0.517689 0.900380 0.000000
0.707533 0.939853 0.000000
1.000000 0.946208 0.000000
0.000000 0.126776 0.000000
0.127137 0.130355 0.000000
0.229432 0.146938 0.000000
0.301689 0.178270 0.000000
0.356401 0.215715 0.000000
0.381330 0.256476 0.000000
0.395879 0.298362 0.000000
0.383391 0.336780 0.000000
0.375210 0.379045 0.000000
0.351772 0.424871 0.000000
0.333930 0.477422 0.000000
0.304707 0.535750 0.000000
0.298354 0.604104 0.000000
0.295600 0.685222 0.000000
0.317953 0.765705 0.000000
0.367124 0.840739 0.000000
0.478392 0.904962 0.000000
0.677603 0.948617 0.000000
1.000000 0.954637 0.000000
0.000000 0.154422 0.000000
0.092540 0.158374 0.000000
0.168631 0.171344 0.000000
0.226391 0.194905 0.000000
0.272649 0.222559 0.000000
0.298379 0.257304 0.000000
0.314763 0.295602 0.000000
0.308874 0.337100 0.000000
0.302979 0.381593 0.000000
0.287348 0.431125 0.000000
0.274113 0.485888 0.000000
0.253710 0.550412 0.000000
0.256467 0.618668 0.000000
0.257317 0.701611 0.000000
0.284412 0.780965 0.000000
0.335328 0.854536 0.000000
0.446847 0.913772 0.000000
0.656037 0.957294 0.000000
1.000000 0.962208 0.000000
0.000000 0.193750 0.000000
0.059289 0.197667 0.000000
0.113035 0.208452 0.000000
0.159025 0.228246 0.000000
0.196674 0.253325 0.000000
0.219060 0.284414 0.000000
0.234299 0.317964 0.000000
0.232209 0.357306 0.000000
0.231694 0.399664 0.000000
0.223967 0.450132 0.000000
0.217745 0.506750 0.000000
0.206726 0.577738 0.000000
0.215718 0.643602 0.000000
0.222576 0.727340 0.000000
0.253315 0.803308 0.000000
0.307895 0.872531 0.000000
0.418781 0.924545 0.000000
0.638226 0.965799 0.000000
1.000000 0.969521 0.000000
0.000000 0.265549 0.000000
0.036721 0.269973 0.000000
0.071437 0.275985 0.000000
0.101389 0.290157 0.000000
0.127474 0.307906 0.000000
0.145465 0.335324 0.000000
0.159228 0.367158 0.000000
0.163243 0.410770 0.000000
0.165308 0.458409 0.000000
0.163307 0.513215 0.000000
0.163221 0.570512 0.000000
0.164704 0.638228 0.000000
0.178277 0.698328 0.000000
0.194928 0.773636 0.000000
0.228245 0.840976 0.000000
0.290157 0.898610 0.000000
0.396007 0.939364 0.000000
0.624858 0.974355 0.000000
1.000000 0.977160 0.000000
0.000000 0.361532 0.000000
0.022436 0.367349 0.000000
0.042953 0.378841 0.000000
0.060661 0.396013 0.000000
0.075472 0.418763 0.000000
0.086250 0.446851 0.000000
0.095066 0.478408 0.000000
0.099639 0.517687 0.000000
0.103816 0.560877 0.000000
0.109025 0.609032 0.000000
0.117022 0.661521 0.000000
0.129032 0.717141 0.000000
0.146939 0.770406 0.000000
0.171315 0.831353 0.000000
0.208469 0.886952 0.000000
0.275979 0.928552 0.000000
0.378847 0.957072 0.000000
0.617362 0.982867 0.000000
1.000000 0.984747 0.000000
0.000000 0.609571 0.000000
0.008658 0.610426 0.000000
0.017124 0.617334 0.000000
0.025624 0.624842 0.000000
0.034198 0.638124 0.000000
0.042709 0.655884 0.000000
0.051408 0.677344 0.000000
0.060151 0.707405 0.000000
0.070037 0.739148 0.000000
0.081338 0.770200 0.000000
0.094319 0.805901 0.000000
0.110665 0.840129 0.000000
0.130411 0.872714 0.000000
0.158366 0.907467 0.000000
0.197694 0.940715 0.000000
0.269958 0.963258 0.000000
0.367312 0.977578 0.000000
0.610513 0.991346 0.000000
1.000000 0.992416 0.000000
0.000000 1.000000 0.000000
0.007565 1.000000 0.000000
0.015256 1.000000 0.000000
0.022890 1.000000 0.000000
0.030504 1.000000 0.000000
0.037806 1.000000 0.000000
0.045386 1.000000 0.000000
0.053841 1.000000 0.000000
0.063696 1.000000 0.000000
0.074973 1.000000 0.000000
0.088556 1.000000 0.000000
0.106047 1.000000 0.000000
0.126897 1.000000 0.000000
0.154431 1.000000 0.000000
0.193794 1.000000 0.000000
0.265512 1.000000 0.000000
0.361502 1.000000 0.000000
0.609638 1.000000 0.000000
1.000000 1.000000 0.000000
0.000000 0.000000 0.055181
0.390559 0.000000 0.055050
0.638349 0.000000 0.055020
0.734389 0.000000 0.055015
0.806205 0.000000 0.054974
[...]
POINT_DATA 2527 
VECTORS pos float 
0.000000 0.000000 0.000000
0.390380 0.000000 0.000000
0.638579 0.000000 0.000000
0.734423 0.000000 0.000000
0.806168 0.000000 0.000000
0.845549 0.000000 0.000000
0.873219 0.000000 0.000000
0.894272 0.000000 0.000000
0.911732 0.000000 0.000000
0.925333 0.000000 0.000000
0.936696 0.000000 0.000000
0.946511 0.000000 0.000000
0.954747 0.000000 0.000000
0.962431 0.000000 0.000000
0.969855 0.000000 0.000000
0.977335 0.000000 0.000000
0.984822 0.000000 0.000000
0.992471 0.000000 0.000000
1.000000 0.000000 0.000000
0.000000 0.007586 0.000000
0.389223 0.008664 0.000000
0.632588 0.022395 0.000000
0.730058 0.036719 0.000000
0.802274 0.059298 0.000000
0.841614 0.092459 0.000000
0.869631 0.127152 0.000000
0.889376 0.159895 0.000000
0.905665 0.193900 0.000000
0.918759 0.229578 0.000000
0.929984 0.260644 0.000000
0.939809 0.292633 0.000000
0.948508 0.322422 0.000000
0.957271 0.343933 0.000000
0.965759 0.361486 0.000000
0.974325 0.374542 0.000000
0.982835 0.382060 0.000000
0.991335 0.389284 0.000000
1.000000 0.390253 0.000000
0.000000 0.015214 0.000000
0.382009 0.017145 0.000000
0.621183 0.042894 0.000000
0.724079 0.071485 0.000000
0.791527 0.113058 0.000000
0.828673 0.168654 0.000000
0.853038 0.229513 0.000000
0.870908 0.282918 0.000000
0.882999 0.338260 0.000000
0.890964 0.390955 0.000000
0.896224 0.438965 0.000000
0.900262 0.482466 0.000000
0.904932 0.521665 0.000000
0.913772 0.553306 0.000000
0.924595 0.581434 0.000000
0.939448 0.604030 0.000000
0.957128 0.621081 0.000000
0.977606 0.632592 0.000000
1.000000 0.638625 0.000000
0.000000 0.022690 0.000000
0.374539 0.025655 0.000000
0.604027 0.060566 0.000000
0.709785 0.101421 0.000000
0.771799 0.159001 0.000000
0.805041 0.226344 0.000000
0.821682 0.301662 0.000000
0.835306 0.361783 0.000000
0.836782 0.429515 0.000000
0.836781 0.486656 0.000000
0.834654 0.541650 0.000000
0.836743 0.589201 0.000000
0.840710 0.632843 0.000000
0.854492 0.664621 0.000000
0.872497 0.691984 0.000000
0.898567 0.709803 0.000000
0.928519 0.724077 0.000000
0.963259 0.730046 0.000000
1.000000 0.734435 0.000000
0.000000 0.030167 0.000000
0.361558 0.034230 0.000000
0.581468 0.075461 0.000000
0.691993 0.127499 0.000000
0.746766 0.196634 0.000000
0.777401 0.272695 0.000000
0.784308 0.356413 0.000000
0.793277 0.422245 0.000000
0.782247 0.493211 0.000000
0.776055 0.549803 0.000000
0.768269 0.600295 0.000000
0.767735 0.642721 0.000000
0.765711 0.682089 0.000000
0.780961 0.715676 0.000000
0.803346 0.746788 0.000000
0.841019 0.771770 0.000000
0.886938 0.791515 0.000000
0.940725 0.802282 0.000000
1.000000 0.806199 0.000000
0.000000 0.037604 0.000000
0.343848 0.042725 0.000000
0.553255 0.086241 0.000000
0.664594 0.145491 0.000000
0.715698 0.219024 0.000000
0.742635 0.298388 0.000000
0.743561 0.381314 0.000000
0.746285 0.449586 0.000000
0.725874 0.514110 0.000000
0.712612 0.568906 0.000000
0.696993 0.618469 0.000000
0.691155 0.662908 0.000000
0.685232 0.704373 0.000000
0.701591 0.742644 0.000000
0.727321 0.777375 0.000000
0.773653 0.805052 0.000000
0.831351 0.828690 0.000000
0.907500 0.841622 0.000000
1.000000 0.845561 0.000000
0.000000 0.045378 0.000000
0.322506 0.051511 0.000000
0.521677 0.095109 0.000000
0.632868 0.159306 0.000000
0.682096 0.234315 0.000000
0.704357 0.314715 0.000000
0.701690 0.395915 0.000000
0.695298 0.464237 0.000000
0.666089 0.522511 0.000000
0.648276 0.575130 0.000000
0.624780 0.620935 0.000000
0.616614 0.663268 0.000000
0.604069 0.701696 0.000000
0.618657 0.743596 0.000000
0.643666 0.784350 0.000000
0.698382 0.821728 0.000000
0.770430 0.853053 0.000000
0.872758 0.869571 0.000000
1.000000 0.873154 0.000000
0.000000 0.053572 0.000000
0.292568 0.060193 0.000000
0.482376 0.099728 0.000000
0.589239 0.163251 0.000000
0.642683 0.232275 0.000000
0.662903 0.308851 0.000000
0.663262 0.383392 0.000000
0.651803 0.448708 0.000000
0.622362 0.502425 0.000000
0.596257 0.555990 0.000000
0.568532 0.603696 0.000000
0.551274 0.651784 0.000000
0.535748 0.695270 0.000000
0.550406 0.746274 0.000000
0.577720 0.793282 0.000000
0.638245 0.835295 0.000000
0.717122 0.870988 0.000000
0.840141 0.889305 0.000000
1.000000 0.893953 0.000000
0.000000 0.063343 0.000000
0.260595 0.070053 0.000000
0.439007 0.103800 0.000000
0.541665 0.165357 0.000000
0.600277 0.231680 0.000000
0.618439 0.302999 0.000000
0.620949 0.375161 0.000000
0.603711 0.431475 0.000000
0.576147 0.480675 0.000000
0.548049 0.530106 0.000000
0.519328 0.576176 0.000000
0.497556 0.622353 0.000000
0.477414 0.666073 0.000000
0.485921 0.725887 0.000000
0.506759 0.782275 0.000000
0.570494 0.836781 0.000000
0.661533 0.882975 0.000000
0.805965 0.905690 0.000000
1.000000 0.911501 0.000000
0.000000 0.074748 0.000000
0.229679 0.081245 0.000000
0.390876 0.108991 0.000000
0.486665 0.163209 0.000000
0.549839 0.224009 0.000000
0.568887 0.287358 0.000000
0.575171 0.351797 0.000000
0.555982 0.403781 0.000000
0.530077 0.451956 0.000000
0.499991 0.500022 0.000000
0.469887 0.548059 0.000000
0.444009 0.596246 0.000000
0.424889 0.648244 0.000000
0.431121 0.712646 0.000000
0.450139 0.776023 0.000000
0.513262 0.836731 0.000000
0.609038 0.891005 0.000000
0.770186 0.918687 0.000000
1.000000 0.925075 0.000000
0.000000 0.088357 0.000000
0.194053 0.094374 0.000000
0.338429 0.117049 0.000000
0.429534 0.163215 0.000000
0.493192 0.217694 0.000000
0.514109 0.274133 0.000000
0.522584 0.333920 0.000000
0.502434 0.377624 0.000000
0.480644 0.423847 0.000000
0.451976 0.469913 0.000000
0.423839 0.519332 0.000000
0.396276 0.568558 0.000000
0.379032 0.624787 0.000000
0.381600 0.697013 0.000000
0.399658 0.768329 0.000000
0.458416 0.834694 0.000000
0.560927 0.896247 0.000000
0.739293 0.929945 0.000000
1.000000 0.936314 0.000000
0.000000 0.105788 0.000000
0.159892 0.110615 0.000000
0.282962 0.129062 0.000000
0.361804 0.164700 0.000000
0.422269 0.206711 0.000000
0.449557 0.253707 0.000000
0.464250 0.304704 0.000000
0.448749 0.348190 0.000000
0.431451 0.396292 0.000000
0.403751 0.444015 0.000000
0.377654 0.497570 0.000000
0.348198 0.551283 0.000000
0.336747 0.616630 0.000000
0.337097 0.691128 0.000000
0.357295 0.767757 0.000000
0.410758 0.836759 0.000000
0.517689 0.900380 0.000000
0.707533 0.939853 0.000000
1.000000 0.946208 0.000000
0.000000 0.126776 0.000000
0.127137 0.130355 0.000000
0.229432 0.146938 0.000000
0.301689 0.178270 0.000000
0.356401 0.215715 0.000000
0.381330 0.256476 0.000000
0.395879 0.298362 0.000000
0.383391 0.336780 0.000000
0.375210 0.379045 0.000000
0.351772 0.424871 0.000000
0.333930 0.477422 0.000000
0.304707 0.535750 0.000000
0.298354 0.604104 0.000000
0.295600 0.685222 0.000000
0.317953 0.765705 0.000000
0.367124 0.840739 0.000000
0.478392 0.904962 0.000000
0.677603 0.948617 0.000000
1.000000 0.954637 0.000000
0.000000 0.154422 0.000000
0.092540 0.158374 0.000000
0.168631 0.171344 0.000000
0.226391 0.194905 0.000000
0.272649 0.222559 0.000000
0.298379 0.257304 0.000000
0.314763 0.295602 0.000000
0.308874 0.337100 0.000000
0.302979 0.381593 0.000000
0.287348 0.431125 0.000000
0.274113 0.485888 0.000000
0.253710 0.550412 0.000000
0.256467 0.618668 0.000000
0.257317 0.701611 0.000000
0.284412 0.780965 0.000000
0.335328 0.854536 0.000000
0.446847 0.913772 0.000000
0.656037 0.957294 0.000000
1.000000 0.962208 0.000000
0.000000 0.193750 0.000000
0.059289 0.197667 0.000000
0.113035 0.208452 0.000000
0.159025 0.228246 0.000000
0.196674 0.253325 0.000000
0.219060 0.284414 0.000000
0.234299 0.317964 0.000000
0.232209 0.357306 0.000000
0.231694 0.399664 0.000000
0.223967 0.450132 0.000000
0.217745 0.506750 0.000000
0.206726 0.577738 0.000000
0.215718 0.643602 0.000000
0.222576 0.727340 0.000000
0.253315 0.803308 0.000000
0.307895 0.872531 0.000000
0.418781 0.924545 0.000000
0.638226 0.965799 0.000000
1.000000 0.969521 0.000000
0.000000 0.265549 0.000000
0.036721 0.269973 0.000000
0.071437 0.275985 0.000000
0.101389 0.290157 0.000000
0.127474 0.307906 0.000000
0.145465 0.335324 0.000000
0.159228 0.367158 0.000000
0.163243 0.410770 0.000000
0.165308 0.458409 0.000000
0.163307 0.513215 0.000000
0.163221 0.570512 0.000000
0.164704 0.638228 0.000000
0.178277 0.698328 0.000000
0.194928 0.773636 0.000000
0.228245 0.840976 0.000000
0.290157 0.898610 0.000000
0.396007 0.939364 0.000000
0.624858 0.974355 0.000000
1.000000 0.977160 0.000000
0.000000 0.361532 0.000000
0.022436 0.367349 0.000000
0.042953 0.378841 0.000000
0.060661 0.396013 0.000000
0.075472 0.418763 0.000000
0.086250 0.446851 0.000000
0.095066 0.478408 0.000000
0.099639 0.517687 0.000000
0.103816 0.560877 0.000000
0.109025 0.609032 0.000000
0.117022 0.661521 0.000000
0.129032 0.717141 0.000000
0.146939 0.770406 0.000000
0.171315 0.831353 0.000000
0.208469 0.886952 0.000000
0.275979 0.928552 0.000000
0.378847 0.957072 0.000000
0.617362 0.982867 0.000000
1.000000 0.984747 0.000000
0.000000 0.609571 0.000000
0.008658 0.610426 0.000000
0.017124 0.617334 0.000000
0.025624 0.624842 0.000000
0.034198 0.638124 0.000000
0.042709 0.655884 0.000000
0.051408 0.677344 0.000000
0.060151 0.707405 0.000000
0.070037 0.739148 0.000000
0.081338 0.770200 0.000000
0.094319 0.805901 0.000000
0.110665 0.840129 0.000000
0.130411 0.872714 0.000000
0.158366 0.907467 0.000000
0.197694 0.940715 0.000000
0.269958 0.963258 0.000000
0.367312 0.977578 0.000000
0.610513 0.991346 0.000000
1.000000 0.992416 0.000000
0.000000 1.000000 0.000000
0.007565 1.000000 0.000000
0.015256 1.000000 0.000000
0.022890 1.000000 0.000000
0.030504 1.000000 0.000000
0.037806 1.000000 0.000000
0.045386 1.000000 0.000000
0.053841 1.000000 0.000000
0.063696 1.000000 0.000000
0.074973 1.000000 0.000000
0.088556 1.000000 0.000000
0.106047 1.000000 0.000000
0.126897 1.000000 0.000000
0.154431 1.000000 0.000000
0.193794 1.000000 0.000000
0.265512 1.000000 0.000000
0.361502 1.000000 0.000000
0.609638 1.000000 0.000000
1.000000 1.000000 0.000000
0.000000 0.000000 0.055181
0.390559 0.000000 0.055050
0.638349 0.000000 0.055020
0.734389 0.000000 0.055015
0.806205 0.000000 0.054974
0.845607 0.000000 0.055006
0.873235 0.000000 0.055013
0.894057 0.000000 0.054945
0.911516 0.000000 0.055040
0.925096 0.000000 0.055056
0.936424 0.000000 0.055089
0.946287 0.000000 0.054921
0.954643 0.000000 0.054994
0.962283 0.000000 0.054927
0.969673 0.000000 0.055061
0.977177 0.000000 0.054959
0.984735 0.000000 0.055079
0.992412 0.000000 0.055135
1.000000 0.000000 0.055088
0.000000 0.007571 0.055201
0.389621 0.008679 0.055058
0.632551 0.022432 0.054997
0.730031 0.036700 0.054987
0.802301 0.059321 0.055001
0.841649 0.092467 0.054977
0.869594 0.127104 0.055003
0.889369 0.159961 0.054997
0.905652 0.194093 0.054993
0.918723 0.229897 0.054967
0.929956 0.260798 0.055000
0.939865 0.292413 0.054965
0.948551 0.322733 0.054964
0.957279 0.344264 0.055021
0.965787 0.362004 0.055014
0.974342 0.374950 0.055010
0.982833 0.382498 0.055050
0.991326 0.389650 0.055026
1.000000 0.390711 0.055046
0.000000 0.015235 0.055082
0.382441 0.017173 0.055054
0.621226 0.042957 0.054998
0.724030 0.071445 0.054996
0.791551 0.113091 0.054976
0.828711 0.168647 0.055005
0.853085 0.229462 0.054981
0.870985 0.282966 0.055008
0.883011 0.338470 0.054966
0.891006 0.390952 0.054979
0.896259 0.438928 0.055005
0.900394 0.482151 0.055001
0.904817 0.521735 0.055002
0.913662 0.553174 0.054991
0.924497 0.581275 0.055012
0.939354 0.604018 0.055005
0.957045 0.621182 0.055007
0.977569 0.632564 0.055010
1.000000 0.638352 0.055007
0.000000 0.022821 0.054938
0.374941 0.025659 0.054985
0.604020 0.060626 0.054995
0.709753 0.101388 0.054976
0.771816 0.159018 0.055016
0.805060 0.226377 0.054996
0.821765 0.301638 0.055011
0.835307 0.361811 0.054999
0.836792 0.429501 0.055005
0.836767 0.486722 0.055023
0.834682 0.541618 0.054997
0.836754 0.589169 0.055009
0.840669 0.632942 0.055003
0.854564 0.664675 0.054976
0.872550 0.692060 0.054994
0.898638 0.709761 0.054978
0.928566 0.724035 0.054979
0.963300 0.730026 0.054985
1.000000 0.734377 0.054996
0.000000 0.030323 0.054975
0.361954 0.034216 0.054981
0.581287 0.075462 0.054992
0.692039 0.127467 0.055000
0.746718 0.196652 0.054994
0.777393 0.272652 0.054999
0.784335 0.356373 0.054998
0.793285 0.422256 0.055003
0.782294 0.493284 0.054999
0.776049 0.549816 0.054997
0.768297 0.600297 0.055004
0.767787 0.642672 0.055003
0.765706 0.682043 0.055019
0.780967 0.715604 0.055017
0.803351 0.746701 0.054993
0.840972 0.771804 0.055023
0.886894 0.791545 0.055009
0.940689 0.802297 0.055008
1.000000 0.806202 0.054977
0.000000 0.037678 0.054897
0.344336 0.042731 0.054980
0.553203 0.086326 0.054995
0.664673 0.145447 0.054990
0.715599 0.219042 0.055011
0.742688 0.298394 0.054988
0.743528 0.381375 0.055002
0.746301 0.449610 0.055010
0.725857 0.514137 0.055011
0.712648 0.568895 0.054993
0.697032 0.618448 0.054996
0.691091 0.662908 0.055015
0.685308 0.704385 0.054994
0.701610 0.742693 0.054988
0.727350 0.777414 0.054998
0.773601 0.805061 0.054981
0.831367 0.828694 0.054993
0.907541 0.841653 0.054986
1.000000 0.845631 0.055015
0.000000 0.045256 0.054956
0.322669 0.051438 0.054941
0.521729 0.095165 0.055032
0.632942 0.159338 0.055003
0.682046 0.234308 0.055001
0.704400 0.314727 0.055002
0.701643 0.395834 0.055006
0.695308 0.464236 0.055000
0.666051 0.522558 0.054994
0.648258 0.575142 0.054997
0.624783 0.620936 0.055004
0.616552 0.663214 0.054992
0.604168 0.701634 0.055013
0.618654 0.743518 0.054987
0.643613 0.784316 0.055000
0.698320 0.821753 0.055000
0.770541 0.853068 0.055007
0.872855 0.869618 0.054993
1.000000 0.873277 0.054984
0.000000 0.053632 0.054943
0.292471 0.060151 0.054975
0.482191 0.099624 0.055001
0.589150 0.163226 0.055017
0.642669 0.232201 0.054986
0.662899 0.308887 0.055009
0.663241 0.383416 0.054993
0.651804 0.448710 0.055000
0.622366 0.502413 0.054993
0.596265 0.555999 0.055000
0.568543 0.603677 0.055005
0.551265 0.651806 0.054998
0.535771 0.695312 0.054989
0.550409 0.746300 0.055005
0.577730 0.793280 0.055000
0.638189 0.835326 0.054990
0.717038 0.870970 0.054990
0.840022 0.889365 0.055014
1.000000 0.894186 0.055042
0.000000 0.063522 0.055060
0.260688 0.070042 0.055011
0.438959 0.103743 0.055029
0.541613 0.165345 0.055006
0.600286 0.231650 0.055027
0.618431 0.302964 0.055012
0.620952 0.375211 0.055014
0.603690 0.431476 0.054986
0.576154 0.480668 0.054994
0.548051 0.530080 0.055007
0.519335 0.576157 0.055007
0.497612 0.622364 0.055004
0.477444 0.666071 0.055010
0.485869 0.725854 0.055023
0.506751 0.782286 0.055009
0.570498 0.836785 0.054977
0.661504 0.882984 0.055001
0.805878 0.905674 0.055016
1.000000 0.911655 0.054984
0.000000 0.074913 0.055039
0.229846 0.081266 0.054977
0.390885 0.108961 0.055017
0.486721 0.163233 0.054994
0.549839 0.223996 0.055012
0.568914 0.287375 0.054999
0.575131 0.351772 0.055009
0.556006 0.403738 0.055004
0.530091 0.451952 0.055005
0.499996 0.500009 0.055001
0.469905 0.548055 0.055008
0.443998 0.596284 0.055006
0.424856 0.648238 0.054995
0.431126 0.712673 0.054986
0.450161 0.776039 0.055007
0.513284 0.836767 0.055016
0.609074 0.891012 0.055012
0.770203 0.918746 0.055012
1.000000 0.925239 0.055079
0.000000 0.088463 0.055068
0.194141 0.094358 0.054984
0.338456 0.117005 0.054999
0.429522 0.163188 0.054998
0.493245 0.217694 0.054998
0.514129 0.274127 0.054977
0.522571 0.333936 0.055006
0.502402 0.377637 0.054995
0.480668 0.423858 0.054984
0.451962 0.469912 0.055012
0.423853 0.519342 0.054987
0.396304 0.568523 0.055007
0.379050 0.624764 0.054997
0.381567 0.696991 0.055001
0.399685 0.768309 0.054980
0.458384 0.834692 0.054986
0.561085 0.896238 0.054993
0.739410 0.929951 0.054994
1.000000 0.936646 0.054997
0.000000 0.105940 0.054949
0.159958 0.110633 0.055008
0.282971 0.129024 0.055011
0.361807 0.164704 0.055003
0.422272 0.206714 0.054991
0.449587 0.253700 0.054999
0.464232 0.304679 0.054997
0.448743 0.348189 0.054996
0.431464 0.396312 0.055000
0.403718 0.443996 0.055004
0.377642 0.497611 0.054999
0.348168 0.551270 0.054987
0.336771 0.616598 0.055027
0.337113 0.691148 0.055003
0.357306 0.767760 0.055025
0.410851 0.836785 0.054993
0.517709 0.900326 0.055001
0.707573 0.939840 0.054979
1.000000 0.946426 0.055038
0.000000 0.126742 0.055012
0.127082 0.130431 0.055010
0.229431 0.146918 0.054991
0.301612 0.178243 0.055015
0.356362 0.215680 0.055018
0.381340 0.256471 0.055018
0.395818 0.298349 0.054970
0.383440 0.336770 0.055009
0.375222 0.379055 0.054992
0.351740 0.424870 0.055001
0.333936 0.477442 0.054999
0.304674 0.535757 0.054981
0.298352 0.604172 0.055010
0.295626 0.685289 0.055017
0.317895 0.765668 0.054970
0.367145 0.840690 0.055007
0.478238 0.904861 0.054988
0.677559 0.948529 0.055007
1.000000 0.954775 0.054959
0.000000 0.154375 0.055005
0.092511 0.158361 0.055000
0.168665 0.171332 0.054975
0.226396 0.194942 0.054982
0.272663 0.222599 0.054987
0.298433 0.257321 0.054997
0.314657 0.295636 0.055000
0.308874 0.337101 0.054992
0.302976 0.381553 0.055014
0.287358 0.431097 0.055006
0.274134 0.485870 0.054982
0.253690 0.550428 0.054998
0.256477 0.618657 0.055008
0.257311 0.701588 0.054992
0.284371 0.781005 0.055001
0.335356 0.854530 0.054996
0.446696 0.913695 0.055004
0.656001 0.957252 0.055000
1.000000 0.962404 0.054982
0.000000 0.193761 0.054995
0.059285 0.197675 0.055008
0.113058 0.208466 0.055013
0.158989 0.228233 0.054998
0.196682 0.253269 0.055000
0.219006 0.284372 0.054999
0.234276 0.317915 0.054999
0.232224 0.357308 0.055010
0.231680 0.399705 0.054998
0.223973 0.450138 0.055027
0.217698 0.506733 0.054995
0.206712 0.577722 0.054990
0.215683 0.643645 0.055016
0.222596 0.727330 0.054999
0.253273 0.803347 0.054995
0.307969 0.872547 0.054992
0.418584 0.924507 0.055001
0.638219 0.965734 0.055030
1.000000 0.969808 0.054969
0.000000 0.265574 0.054984
0.036712 0.269947 0.054991
0.071458 0.275917 0.054995
0.101390 0.290208 0.055014
0.127471 0.307964 0.054985
0.145448 0.335389 0.054997
0.159290 0.367156 0.055006
0.163226 0.410832 0.055012
0.165299 0.458386 0.054997
0.163230 0.513289 0.055011
0.163202 0.570505 0.054985
0.164695 0.638175 0.055010
0.178260 0.698377 0.055007
0.194932 0.773605 0.054976
0.228223 0.840987 0.055002
0.290222 0.898621 0.055005
0.395995 0.939405 0.055006
0.625221 0.974294 0.055015
1.000000 0.977294 0.055010
0.000000 0.361484 0.054989
0.022423 0.367393 0.055005
0.042914 0.378866 0.054996
0.060593 0.395953 0.054993
0.075460 0.418626 0.055005
0.086285 0.446714 0.055011
0.095128 0.478263 0.055014
0.099656 0.517736 0.055001
0.103757 0.561089 0.054983
0.108997 0.609049 0.055022
0.117012 0.661523 0.055010
0.129053 0.716988 0.054983
0.146895 0.770574 0.055015
0.171327 0.831342 0.054972
0.208464 0.886924 0.055013
0.275923 0.928535 0.054995
0.378867 0.957080 0.054998
0.617707 0.982814 0.054997
1.000000 0.984804 0.055035
0.000000 0.609529 0.055020
0.008662 0.610626 0.054997
0.017177 0.617752 0.055020
0.025696 0.625286 0.055030
0.034256 0.638269 0.055037
0.042748 0.656000 0.055003
0.051472 0.677481 0.055010
0.060150 0.707548 0.054948
0.070036 0.739340 0.054975
0.081251 0.770137 0.055031
0.094329 0.805875 0.055007
0.110633 0.840023 0.055013
0.130411 0.872899 0.055008
0.158350 0.907505 0.054996
0.197686 0.940707 0.055012
0.269957 0.963289 0.054991
0.367398 0.977570 0.055005
0.610596 0.991336 0.054987
1.000000 0.992448 0.054952
0.000000 1.000000 0.054821
0.007555 1.000000 0.054871
0.015209 1.000000 0.055014
0.022702 1.000000 0.055069
0.030185 1.000000 0.055028
0.037588 1.000000 0.054998
0.045232 1.000000 0.054869
0.053588 1.000000 0.054953
0.063356 1.000000 0.054963
0.074753 1.000000 0.055083
0.088347 1.000000 0.054983
0.105808 1.000000 0.055002
0.126754 1.000000 0.055027
0.154363 1.000000 0.055030
0.193786 1.000000 0.054985
0.265577 1.000000 0.054994
0.361476 1.000000 0.054988
0.609566 1.000000 0.055013
1.000000 1.000000 0.054909
0.000000 0.000000 0.109928
0.390437 0.000000 0.109981
0.638578 0.000000 0.109994
0.734465 0.000000 0.109957
0.806215 0.000000 0.110027
0.845598 0.000000 0.109962
0.873233 0.000000 0.110063
0.894150 0.000000 0.110083
0.911665 0.000000 0.110007
0.925233 0.000000 0.109988
0.936591 0.000000 0.110021
0.946398 0.000000 0.109999
0.954744 0.000000 0.109858
0.962323 0.000000 0.109954
0.969682 0.000000 0.109923
0.977191 0.000000 0.109994
0.984715 0.000000 0.109934