# vtk DataFile Version 2.0
Mesh for Fierro
ASCII 
DATASET UNSTRUCTURED_GRID

POINTS 2527 float
0.000000 0.000000 0.000000
0.105513 0.000000 0.000000
0.206731 0.000000 0.000000
0.302725 0.000000 0.000000
0.389870 0.000000 0.000000
0.467075 0.000000 0.000000
0.535628 0.000000 0.000000
0.596322 0.000000 0.000000
0.649870 0.000000 0.000000
0.697247 0.000000 0.000000
0.740227 0.000000 0.000000
0.779152 0.000000 0.000000
0.815151 0.000000 0.000000
0.849468 0.000000 0.000000
0.882087 0.000000 0.000000
0.912442 0.000000 0.000000
0.941909 0.000000 0.000000
0.971081 0.000000 0.000000
1.000000 0.000000 0.000000
0.000000 0.028918 0.000000
0.105017 0.029678 0.000000
0.205752 0.031514 0.000000
0.301204 0.034389 0.000000
0.387945 0.037883 0.000000
0.464718 0.042542 0.000000
0.533356 0.047538 0.000000
0.593555 0.053760 0.000000
0.646985 0.060405 0.000000
0.694274 0.066862 0.000000
0.736976 0.073440 0.000000
0.776124 0.079954 0.000000
0.812183 0.086198 0.000000
0.846534 0.091684 0.000000
0.879343 0.096494 0.000000
0.910294 0.100383 0.000000
0.940451 0.103162 0.000000
0.970321 0.105017 0.000000
1.000000 0.105513 0.000000
0.000000 0.058091 0.000000
0.103162 0.059549 0.000000
0.202198 0.062745 0.000000
0.296034 0.068545 0.000000
0.381191 0.075605 0.000000
0.457317 0.084922 0.000000
0.525385 0.094875 0.000000
0.584984 0.106967 0.000000
0.637724 0.119625 0.000000
0.684988 0.132166 0.000000
0.727819 0.145084 0.000000
0.767323 0.157253 0.000000
0.804033 0.169674 0.000000
0.839638 0.180328 0.000000
0.873442 0.189338 0.000000
0.905857 0.196813 0.000000
0.937255 0.202198 0.000000
0.968486 0.205752 0.000000
1.000000 0.206731 0.000000
0.000000 0.087558 0.000000
0.100383 0.089706 0.000000
0.196813 0.094143 0.000000
0.288308 0.102514 0.000000
0.371512 0.112841 0.000000
0.446026 0.126513 0.000000
0.513038 0.141488 0.000000
0.571144 0.158830 0.000000
0.623186 0.177333 0.000000
0.669714 0.195322 0.000000
0.712335 0.213885 0.000000
0.752672 0.231434 0.000000
0.790030 0.249212 0.000000
0.827119 0.264454 0.000000
0.862404 0.277457 0.000000
0.897486 0.288308 0.000000
0.931455 0.296034 0.000000
0.965611 0.301204 0.000000
1.000000 0.302725 0.000000
0.000000 0.117913 0.000000
0.096494 0.120657 0.000000
0.189338 0.126558 0.000000
0.277457 0.137596 0.000000
0.358379 0.151123 0.000000
0.430623 0.168127 0.000000
0.495905 0.187255 0.000000
0.552405 0.209274 0.000000
0.603386 0.232369 0.000000
0.649209 0.255849 0.000000
0.692204 0.278508 0.000000
0.733243 0.300557 0.000000
0.772019 0.323220 0.000000
0.811031 0.342426 0.000000
0.848877 0.358379 0.000000
0.887159 0.371512 0.000000
0.924395 0.381191 0.000000
0.962117 0.387945 0.000000
1.000000 0.389870 0.000000
0.000000 0.150532 0.000000
0.091684 0.153466 0.000000
0.180328 0.160362 0.000000
0.264454 0.172881 0.000000
0.342426 0.188969 0.000000
0.411879 0.209445 0.000000
0.475525 0.231865 0.000000
0.530244 0.257800 0.000000
0.579561 0.285267 0.000000
0.624987 0.312166 0.000000
0.667860 0.339500 0.000000
0.709138 0.364712 0.000000
0.749172 0.390041 0.000000
0.790555 0.411879 0.000000
0.831873 0.430623 0.000000
0.873487 0.446026 0.000000
0.915078 0.457317 0.000000
0.957458 0.464718 0.000000
1.000000 0.467075 0.000000
0.000000 0.184849 0.000000
0.086198 0.187817 0.000000
0.169674 0.195967 0.000000
0.249212 0.209970 0.000000
0.323220 0.227981 0.000000
0.390041 0.250828 0.000000
0.452142 0.276134 0.000000
0.504354 0.305144 0.000000
0.552130 0.336195 0.000000
0.597121 0.365692 0.000000
0.639839 0.396373 0.000000
0.682298 0.425069 0.000000
0.723866 0.452142 0.000000
0.768135 0.475525 0.000000
0.812745 0.495905 0.000000
0.858512 0.513038 0.000000
0.905125 0.525385 0.000000
0.952462 0.533356 0.000000
1.000000 0.535628 0.000000
0.000000 0.220848 0.000000
0.079954 0.223876 0.000000
0.157253 0.232677 0.000000
0.231434 0.247328 0.000000
0.300557 0.266757 0.000000
0.364712 0.290862 0.000000
0.425069 0.317702 0.000000
0.474811 0.348071 0.000000
0.521286 0.380127 0.000000
0.566064 0.411915 0.000000
0.608637 0.443643 0.000000
0.651929 0.474811 0.000000
0.694856 0.504354 0.000000
0.742200 0.530244 0.000000
0.790726 0.552405 0.000000
0.841170 0.571144 0.000000
0.893033 0.584984 0.000000
0.946240 0.593555 0.000000
1.000000 0.596322 0.000000
0.000000 0.259773 0.000000
0.073440 0.263024 0.000000
0.145084 0.272181 0.000000
0.213885 0.287665 0.000000
0.278508 0.307796 0.000000
0.339500 0.332140 0.000000
0.396373 0.360161 0.000000
0.443643 0.391363 0.000000
0.489347 0.423476 0.000000
0.533166 0.456314 0.000000
0.576524 0.489347 0.000000
0.619873 0.521286 0.000000
0.663805 0.552130 0.000000
0.714733 0.579561 0.000000
0.767631 0.603386 0.000000
0.822667 0.623186 0.000000
0.880375 0.637724 0.000000
0.939594 0.646984 0.000000
1.000000 0.649870 0.000000
0.000000 0.302753 0.000000
0.066862 0.305726 0.000000
0.132166 0.315012 0.000000
0.195322 0.330286 0.000000
0.255849 0.350791 0.000000
0.312166 0.375013 0.000000
0.365692 0.402879 0.000000
0.411915 0.433936 0.000000
0.456314 0.466834 0.000000
0.500000 0.500000 0.000000
0.543686 0.533166 0.000000
0.588085 0.566064 0.000000
0.634308 0.597121 0.000000
0.687834 0.624987 0.000000
0.744151 0.649209 0.000000
0.804678 0.669714 0.000000
0.867834 0.684988 0.000000
0.933137 0.694274 0.000000
1.000000 0.697247 0.000000
0.000000 0.350130 0.000000
0.060405 0.353015 0.000000
0.119625 0.362276 0.000000
0.177333 0.376814 0.000000
0.232369 0.396614 0.000000
0.285267 0.420439 0.000000
0.336195 0.447870 0.000000
0.380127 0.478714 0.000000
0.423476 0.510653 0.000000
0.466834 0.543686 0.000000
0.510653 0.576524 0.000000
0.556357 0.608637 0.000000
0.603627 0.639839 0.000000
0.660500 0.667860 0.000000
0.721492 0.692204 0.000000
0.786115 0.712335 0.000000
0.854916 0.727819 0.000000
0.926560 0.736976 0.000000
1.000000 0.740227 0.000000
0.000000 0.403678 0.000000
0.053760 0.406445 0.000000
0.106967 0.415016 0.000000
0.158830 0.428856 0.000000
0.209274 0.447595 0.000000
0.257800 0.469756 0.000000
0.305144 0.495646 0.000000
0.348071 0.525189 0.000000
0.391363 0.556357 0.000000
0.433936 0.588085 0.000000
0.478714 0.619873 0.000000
0.525189 0.651929 0.000000
0.574931 0.682298 0.000000
0.635288 0.709138 0.000000
0.699443 0.733243 0.000000
0.768566 0.752672 0.000000
0.842747 0.767323 0.000000
0.920045 0.776124 0.000000
1.000000 0.779152 0.000000
0.000000 0.464372 0.000000
0.047538 0.466644 0.000000
0.094875 0.474615 0.000000
0.141488 0.486962 0.000000
0.187255 0.504095 0.000000
0.231865 0.524475 0.000000
0.276134 0.547858 0.000000
0.317702 0.574931 0.000000
0.360161 0.603627 0.000000
0.402879 0.634308 0.000000
0.447870 0.663805 0.000000
0.495646 0.694856 0.000000
0.547858 0.723866 0.000000
0.609959 0.749172 0.000000
0.676780 0.772019 0.000000
0.750788 0.790030 0.000000
0.830326 0.804033 0.000000
0.913801 0.812183 0.000000
1.000000 0.815151 0.000000
0.000000 0.532925 0.000000
0.042542 0.535282 0.000000
0.084922 0.542683 0.000000
0.126513 0.553974 0.000000
0.168127 0.569377 0.000000
0.209445 0.588121 0.000000
0.250828 0.609959 0.000000
0.290862 0.635288 0.000000
0.332140 0.660500 0.000000
0.375013 0.687834 0.000000
0.420439 0.714733 0.000000
0.469756 0.742200 0.000000
0.524475 0.768135 0.000000
0.588121 0.790555 0.000000
0.657574 0.811031 0.000000
0.735546 0.827119 0.000000
0.819672 0.839638 0.000000
0.908316 0.846534 0.000000
1.000000 0.849468 0.000000
0.000000 0.610130 0.000000
0.037883 0.612055 0.000000
0.075605 0.618809 0.000000
0.112841 0.628488 0.000000
0.151123 0.641621 0.000000
0.188969 0.657574 0.000000
0.227981 0.676780 0.000000
0.266757 0.699443 0.000000
0.307796 0.721492 0.000000
0.350791 0.744151 0.000000
0.396614 0.767631 0.000000
0.447595 0.790726 0.000000
0.504095 0.812745 0.000000
0.569377 0.831873 0.000000
0.641621 0.848877 0.000000
0.722543 0.862404 0.000000
0.810662 0.873442 0.000000
0.903506 0.879343 0.000000
1.000000 0.882087 0.000000
0.000000 0.697275 0.000000
0.034389 0.698796 0.000000
0.068545 0.703966 0.000000
0.102514 0.711692 0.000000
0.137596 0.722543 0.000000
0.172881 0.735546 0.000000
0.209970 0.750788 0.000000
0.247328 0.768566 0.000000
0.287665 0.786115 0.000000
0.330286 0.804678 0.000000
0.376814 0.822667 0.000000
0.428856 0.841170 0.000000
0.486962 0.858512 0.000000
0.553974 0.873487 0.000000
0.628488 0.887159 0.000000
0.711692 0.897486 0.000000
0.803187 0.905857 0.000000
0.899616 0.910294 0.000000
1.000000 0.912442 0.000000
0.000000 0.793269 0.000000
0.031514 0.794248 0.000000
0.062745 0.797802 0.000000
0.094143 0.803187 0.000000
0.126558 0.810662 0.000000
0.160362 0.819672 0.000000
0.195967 0.830326 0.000000
0.232677 0.842747 0.000000
0.272181 0.854916 0.000000
0.315012 0.867834 0.000000
0.362276 0.880375 0.000000
0.415016 0.893033 0.000000
0.474615 0.905125 0.000000
0.542683 0.915078 0.000000
0.618809 0.924394 0.000000
0.703966 0.931455 0.000000
0.797802 0.937255 0.000000
0.896837 0.940451 0.000000
1.000000 0.941909 0.000000
0.000000 0.894486 0.000000
0.029678 0.894982 0.000000
0.059549 0.896837 0.000000
0.089706 0.899616 0.000000
0.120657 0.903506 0.000000
0.153466 0.908316 0.000000
0.187817 0.913801 0.000000
0.223876 0.920045 0.000000
0.263024 0.926560 0.000000
0.305726 0.933137 0.000000
0.353016 0.939594 0.000000
0.406445 0.946240 0.000000
0.466644 0.952462 0.000000
0.535282 0.957458 0.000000
0.612055 0.962117 0.000000
0.698796 0.965611 0.000000
0.794248 0.968486 0.000000
0.894982 0.970321 0.000000
1.000000 0.971081 0.000000
0.000000 1.000000 0.000000
0.028918 1.000000 0.000000
0.058091 1.000000 0.000000
0.087558 1.000000 0.000000
0.117913 1.000000 0.000000
0.150532 1.000000 0.000000
0.184849 1.000000 0.000000
0.220848 1.000000 0.000000
0.259773 1.000000 0.000000
0.302753 1.000000 0.000000
0.350130 1.000000 0.000000
0.403678 1.000000 0.000000
0.464372 1.000000 0.000000
0.532925 1.000000 0.000000
0.610130 1.000000 0.000000
0.697275 1.000000 0.000000
0.793269 1.000000 0.000000
0.894486 1.000000 0.000000
1.000000 1.000000 0.000000
0.000000 0.000000 0.055000
0.105513 0.000000 0.055000
0.206731 0.000000 0.055000
0.302725 0.000000 0.055000
0.389870 0.000000 0.055000
[...]
POINT_DATA 2527 
VECTORS pos float 
0.000000 0.000000 0.000000
0.105513 0.000000 0.000000
0.206731 0.000000 0.000000
0.302725 0.000000 0.000000
0.389870 0.000000 0.000000
0.467075 0.000000 0.000000
0.535628 0.000000 0.000000
0.596322 0.000000 0.000000
0.649870 0.000000 0.000000
0.697247 0.000000 0.000000
0.740227 0.000000 0.000000
0.779152 0.000000 0.000000
0.815151 0.000000 0.000000
0.849468 0.000000 0.000000
0.882087 0.000000 0.000000
0.912442 0.000000 0.000000
0.941909 0.000000 0.000000
0.971081 0.000000 0.000000
1.000000 0.000000 0.000000
0.000000 0.028918 0.000000
0.105017 0.029678 0.000000
0.205752 0.031514 0.000000
0.301204 0.034389 0.000000
0.387945 0.037883 0.000000
0.464718 0.042542 0.000000
0.533356 0.047538 0.000000
0.593555 0.053760 0.000000
0.646985 0.060405 0.000000
0.694274 0.066862 0.000000
0.736976 0.073440 0.000000
0.776124 0.079954 0.000000
0.812183 0.086198 0.000000
0.846534 0.091684 0.000000
0.879343 0.096494 0.000000
0.910294 0.100383 0.000000
0.940451 0.103162 0.000000
0.970321 0.105017 0.000000
1.000000 0.105513 0.000000
0.000000 0.058091 0.000000
0.103162 0.059549 0.000000
0.202198 0.062745 0.000000
0.296034 0.068545 0.000000
0.381191 0.075605 0.000000
0.457317 0.084922 0.000000
0.525385 0.094875 0.000000
0.584984 0.106967 0.000000
0.637724 0.119625 0.000000
0.684988 0.132166 0.000000
0.727819 0.145084 0.000000
0.767323 0.157253 0.000000
0.804033 0.169674 0.000000
0.839638 0.180328 0.000000
0.873442 0.189338 0.000000
0.905857 0.196813 0.000000
0.937255 0.202198 0.000000
0.968486 0.205752 0.000000
1.000000 0.206731 0.000000
0.000000 0.087558 0.000000
0.100383 0.089706 0.000000
0.196813 0.094143 0.000000
0.288308 0.102514 0.000000
0.371512 0.112841 0.000000
0.446026 0.126513 0.000000
0.513038 0.141488 0.000000
0.571144 0.158830 0.000000
0.623186 0.177333 0.000000
0.669714 0.195322 0.000000
0.712335 0.213885 0.000000
0.752672 0.231434 0.000000
0.790030 0.249212 0.000000
0.827119 0.264454 0.000000
0.862404 0.277457 0.000000
0.897486 0.288308 0.000000
0.931455 0.296034 0.000000
0.965611 0.301204 0.000000
1.000000 0.302725 0.000000
0.000000 0.117913 0.000000
0.096494 0.120657 0.000000
0.189338 0.126558 0.000000
0.277457 0.137596 0.000000
0.358379 0.151123 0.000000
0.430623 0.168127 0.000000
0.495905 0.187255 0.000000
0.552405 0.209274 0.000000
0.603386 0.232369 0.000000
0.649209 0.255849 0.000000
0.692204 0.278508 0.000000
0.733243 0.300557 0.000000
0.772019 0.323220 0.000000
0.811031 0.342426 0.000000
0.848877 0.358379 0.000000
0.887159 0.371512 0.000000
0.924395 0.381191 0.000000
0.962117 0.387945 0.000000
1.000000 0.389870 0.000000
0.000000 0.150532 0.000000
0.091684 0.153466 0.000000
0.180328 0.160362 0.000000
0.264454 0.172881 0.000000
0.342426 0.188969 0.000000
0.411879 0.209445 0.000000
0.475525 0.231865 0.000000
0.530244 0.257800 0.000000
0.579561 0.285267 0.000000
0.624987 0.312166 0.000000
0.667860 0.339500 0.000000
0.709138 0.364712 0.000000
0.749172 0.390041 0.000000
0.790555 0.411879 0.000000
0.831873 0.430623 0.000000
0.873487 0.446026 0.000000
0.915078 0.457317 0.000000
0.957458 0.464718 0.000000
1.000000 0.467075 0.000000
0.000000 0.184849 0.000000
0.086198 0.187817 0.000000
0.169674 0.195967 0.000000
0.249212 0.209970 0.000000
0.323220 0.227981 0.000000
0.390041 0.250828 0.000000
0.452142 0.276134 0.000000
0.504354 0.305144 0.000000
0.552130 0.336195 0.000000
0.597121 0.365692 0.000000
0.639839 0.396373 0.000000
0.682298 0.425069 0.000000
0.723866 0.452142 0.000000
0.768135 0.475525 0.000000
0.812745 0.495905 0.000000
0.858512 0.513038 0.000000
0.905125 0.525385 0.000000
0.952462 0.533356 0.000000
1.000000 0.535628 0.000000
0.000000 0.220848 0.000000
0.079954 0.223876 0.000000
0.157253 0.232677 0.000000
0.231434 0.247328 0.000000
0.300557 0.266757 0.000000
0.364712 0.290862 0.000000
0.425069 0.317702 0.000000
0.474811 0.348071 0.000000
0.521286 0.380127 0.000000
0.566064 0.411915 0.000000
0.608637 0.443643 0.000000
0.651929 0.474811 0.000000
0.694856 0.504354 0.000000
0.742200 0.530244 0.000000
0.790726 0.552405 0.000000
0.841170 0.571144 0.000000
0.893033 0.584984 0.000000
0.946240 0.593555 0.000000
1.000000 0.596322 0.000000
0.000000 0.259773 0.000000
0.073440 0.263024 0.000000
0.145084 0.272181 0.000000
0.213885 0.287665 0.000000
0.278508 0.307796 0.000000
0.339500 0.332140 0.000000
0.396373 0.360161 0.000000
0.443643 0.391363 0.000000
0.489347 0.423476 0.000000
0.533166 0.456314 0.000000
0.576524 0.489347 0.000000
0.619873 0.521286 0.000000
0.663805 0.552130 0.000000
0.714733 0.579561 0.000000
0.767631 0.603386 0.000000
0.822667 0.623186 0.000000
0.880375 0.637724 0.000000
0.939594 0.646984 0.000000
1.000000 0.649870 0.000000
0.000000 0.302753 0.000000
0.066862 0.305726 0.000000
0.132166 0.315012 0.000000
0.195322 0.330286 0.000000
0.255849 0.350791 0.000000
0.312166 0.375013 0.000000
0.365692 0.402879 0.000000
0.411915 0.433936 0.000000
0.456314 0.466834 0.000000
0.500000 0.500000 0.000000
0.543686 0.533166 0.000000
0.588085 0.566064 0.000000
0.634308 0.597121 0.000000
0.687834 0.624987 0.000000
0.744151 0.649209 0.000000
0.804678 0.669714 0.000000
0.867834 0.684988 0.000000
0.933137 0.694274 0.000000
1.000000 0.697247 0.000000
0.000000 0.350130 0.000000
0.060405 0.353015 0.000000
0.119625 0.362276 0.000000
0.177333 0.376814 0.000000
0.232369 0.396614 0.000000
0.285267 0.420439 0.000000
0.336195 0.447870 0.000000
0.380127 0.478714 0.000000
0.423476 0.510653 0.000000
0.466834 0.543686 0.000000
0.510653 0.576524 0.000000
0.556357 0.608637 0.000000
0.603627 0.639839 0.000000
0.660500 0.667860 0.000000
0.721492 0.692204 0.000000
0.786115 0.712335 0.000000
0.854916 0.727819 0.000000
0.926560 0.736976 0.000000
1.000000 0.740227 0.000000
0.000000 0.403678 0.000000
0.053760 0.406445 0.000000
0.106967 0.415016 0.000000
0.158830 0.428856 0.000000
0.209274 0.447595 0.000000
0.257800 0.469756 0.000000
0.305144 0.495646 0.000000
0.348071 0.525189 0.000000
0.391363 0.556357 0.000000
0.433936 0.588085 0.000000
0.478714 0.619873 0.000000
0.525189 0.651929 0.000000
0.574931 0.682298 0.000000
0.635288 0.709138 0.000000
0.699443 0.733243 0.000000
0.768566 0.752672 0.000000
0.842747 0.767323 0.000000
0.920045 0.776124 0.000000
1.000000 0.779152 0.000000
0.000000 0.464372 0.000000
0.047538 0.466644 0.000000
0.094875 0.474615 0.000000
0.141488 0.486962 0.000000
0.187255 0.504095 0.000000
0.231865 0.524475 0.000000
0.276134 0.547858 0.000000
0.317702 0.574931 0.000000
0.360161 0.603627 0.000000
0.402879 0.634308 0.000000
0.447870 0.663805 0.000000
0.495646 0.694856 0.000000
0.547858 0.723866 0.000000
0.609959 0.749172 0.000000
0.676780 0.772019 0.000000
0.750788 0.790030 0.000000
0.830326 0.804033 0.000000
0.913801 0.812183 0.000000
1.000000 0.815151 0.000000
0.000000 0.532925 0.000000
0.042542 0.535282 0.000000
0.084922 0.542683 0.000000
0.126513 0.553974 0.000000
0.168127 0.569377 0.000000
0.209445 0.588121 0.000000
0.250828 0.609959 0.000000
0.290862 0.635288 0.000000
0.332140 0.660500 0.000000
0.375013 0.687834 0.000000
0.420439 0.714733 0.000000
0.469756 0.742200 0.000000
0.524475 0.768135 0.000000
0.588121 0.790555 0.000000
0.657574 0.811031 0.000000
0.735546 0.827119 0.000000
0.819672 0.839638 0.000000
0.908316 0.846534 0.000000
1.000000 0.849468 0.000000
0.000000 0.610130 0.000000
0.037883 0.612055 0.000000
0.075605 0.618809 0.000000
0.112841 0.628488 0.000000
0.151123 0.641621 0.000000
0.188969 0.657574 0.000000
0.227981 0.676780 0.000000
0.266757 0.699443 0.000000
0.307796 0.721492 0.000000
0.350791 0.744151 0.000000
0.396614 0.767631 0.000000
0.447595 0.790726 0.000000
0.504095 0.812745 0.000000
0.569377 0.831873 0.000000
0.641621 0.848877 0.000000
0.722543 0.862404 0.000000
0.810662 0.873442 0.000000
0.903506 0.879343 0.000000
1.000000 0.882087 0.000000
0.000000 0.697275 0.000000
0.034389 0.698796 0.000000
0.068545 0.703966 0.000000
0.102514 0.711692 0.000000
0.137596 0.722543 0.000000
0.172881 0.735546 0.000000
0.209970 0.750788 0.000000
0.247328 0.768566 0.000000
0.287665 0.786115 0.000000
0.330286 0.804678 0.000000
0.376814 0.822667 0.000000
0.428856 0.841170 0.000000
0.486962 0.858512 0.000000
0.553974 0.873487 0.000000
0.628488 0.887159 0.000000
0.711692 0.897486 0.000000
0.803187 0.905857 0.000000
0.899616 0.910294 0.000000
1.000000 0.912442 0.000000
0.000000 0.793269 0.000000
0.031514 0.794248 0.000000
0.062745 0.797802 0.000000
0.094143 0.803187 0.000000
0.126558 0.810662 0.000000
0.160362 0.819672 0.000000
0.195967 0.830326 0.000000
0.232677 0.842747 0.000000
0.272181 0.854916 0.000000
0.315012 0.867834 0.000000
0.362276 0.880375 0.000000
0.415016 0.893033 0.000000
0.474615 0.905125 0.000000
0.542683 0.915078 0.000000
0.618809 0.924394 0.000000
0.703966 0.931455 0.000000
0.797802 0.937255 0.000000
0.896837 0.940451 0.000000
1.000000 0.941909 0.000000
0.000000 0.894486 0.000000
0.029678 0.894982 0.000000
0.059549 0.896837 0.000000
0.089706 0.899616 0.000000
0.120657 0.903506 0.000000
0.153466 0.908316 0.000000
0.187817 0.913801 0.000000
0.223876 0.920045 0.000000
0.263024 0.926560 0.000000
0.305726 0.933137 0.000000
0.353016 0.939594 0.000000
0.406445 0.946240 0.000000
0.466644 0.952462 0.000000
0.535282 0.957458 0.000000
0.612055 0.962117 0.000000
0.698796 0.965611 0.000000
0.794248 0.968486 0.000000
0.894982 0.970321 0.000000
1.000000 0.971081 0.000000
0.000000 1.000000 0.000000
0.028918 1.000000 0.000000
0.058091 1.000000 0.000000
0.087558 1.000000 0.000000
0.117913 1.000000 0.000000
0.150532 1.000000 0.000000
0.184849 1.000000 0.000000
0.220848 1.000000 0.000000
0.259773 1.000000 0.000000
0.302753 1.000000 0.000000
0.350130 1.000000 0.000000
0.403678 1.000000 0.000000
0.464372 1.000000 0.000000
0.532925 1.000000 0.000000
0.610130 1.000000 0.000000
0.697275 1.000000 0.000000
0.793269 1.000000 0.000000
0.894486 1.000000 0.000000
1.000000 1.000000 0.000000
0.000000 0.000000 0.055000
0.105513 0.000000 0.055000
0.206731 0.000000 0.055000
0.302725 0.000000 0.055000
0.389870 0.000000 0.055000
0.467075 0.000000 0.055000
0.535628 0.000000 0.055000
0.596322 0.000000 0.055000
0.649870 0.000000 0.055000
0.697247 0.000000 0.055000
0.740227 0.000000 0.055000
0.779152 0.000000 0.055000
0.815151 0.000000 0.055000
0.849468 0.000000 0.055000
0.882087 0.000000 0.055000
0.912442 0.000000 0.055000
0.941909 0.000000 0.055000
0.971081 0.000000 0.055000
1.000000 0.000000 0.055000
0.000000 0.028918 0.055000
0.105017 0.029678 0.055000
0.205752 0.031514 0.055000
0.301204 0.034389 0.055000
0.387945 0.037883 0.055000
0.464718 0.042542 0.055000
0.533356 0.047538 0.055000
0.593555 0.053760 0.055000
0.646985 0.060405 0.055000
0.694274 0.066862 0.055000
0.736976 0.073440 0.055000
0.776124 0.079954 0.055000
0.812183 0.086198 0.055000
0.846534 0.091684 0.055000
0.879343 0.096494 0.055000
0.910294 0.100383 0.055000
0.940451 0.103162 0.055000
0.970321 0.105017 0.055000
1.000000 0.105513 0.055000
0.000000 0.058091 0.055000
0.103162 0.059549 0.055000
0.202198 0.062745 0.055000
0.296034 0.068545 0.055000
0.381191 0.075605 0.055000
0.457317 0.084922 0.055000
0.525385 0.094875 0.055000
0.584984 0.106967 0.055000
0.637724 0.119625 0.055000
0.684988 0.132166 0.055000
0.727819 0.145084 0.055000
0.767323 0.157253 0.055000
0.804033 0.169674 0.055000
0.839638 0.180328 0.055000
0.873442 0.189338 0.055000
0.905857 0.196813 0.055000
0.937255 0.202198 0.055000
0.968486 0.205752 0.055000
1.000000 0.206731 0.055000
0.000000 0.087558 0.055000
0.100383 0.089706 0.055000
0.196813 0.094143 0.055000
0.288308 0.102514 0.055000
0.371512 0.112841 0.055000
0.446026 0.126513 0.055000
0.513038 0.141488 0.055000
0.571144 0.158830 0.055000
0.623186 0.177333 0.055000
0.669714 0.195322 0.055000
0.712335 0.213885 0.055000
0.752672 0.231434 0.055000
0.790030 0.249212 0.055000
0.827119 0.264454 0.055000
0.862404 0.277457 0.055000
0.897486 0.288308 0.055000
0.931455 0.296034 0.055000
0.965611 0.301204 0.055000
1.000000 0.302725 0.055000
0.000000 0.117913 0.055000
0.096494 0.120657 0.055000
0.189338 0.126558 0.055000
0.277457 0.137596 0.055000
0.358379 0.151123 0.055000
0.430623 0.168127 0.055000
0.495905 0.187255 0.055000
0.552405 0.209274 0.055000
0.603386 0.232369 0.055000
0.649209 0.255849 0.055000
0.692204 0.278508 0.055000
0.733243 0.300557 0.055000
0.772019 0.323220 0.055000
0.811031 0.342426 0.055000
0.848877 0.358379 0.055000
0.887159 0.371512 0.055000
0.924395 0.381191 0.055000
0.962117 0.387945 0.055000
1.000000 0.389870 0.055000
0.000000 0.150532 0.055000
0.091684 0.153466 0.055000
0.180328 0.160362 0.055000
0.264454 0.172881 0.055000
0.342426 0.188969 0.055000
0.411879 0.209445 0.055000
0.475525 0.231865 0.055000
0.530244 0.257800 0.055000
0.579561 0.285267 0.055000
0.624987 0.312166 0.055000
0.667860 0.339500 0.055000
0.709138 0.364712 0.055000
0.749172 0.390041 0.055000
0.790555 0.411879 0.055000
0.831873 0.430623 0.055000
0.873487 0.446026 0.055000
0.915078 0.457317 0.055000
0.957458 0.464718 0.055000
1.000000 0.467075 0.055000
0.000000 0.184849 0.055000
0.086198 0.187817 0.055000
0.169674 0.195967 0.055000
0.249212 0.209970 0.055000
0.323220 0.227981 0.055000
0.390041 0.250828 0.055000
0.452142 0.276134 0.055000
0.504354 0.305144 0.055000
0.552130 0.336195 0.055000
0.597121 0.365692 0.055000
0.639839 0.396373 0.055000
0.682298 0.425069 0.055000
0.723866 0.452142 0.055000
0.768135 0.475525 0.055000
0.812745 0.495905 0.055000
0.858512 0.513038 0.055000
0.905125 0.525385 0.055000
0.952462 0.533356 0.055000
1.000000 0.535628 0.055000
0.000000 0.220848 0.055000
0.079954 0.223876 0.055000
0.157253 0.232677 0.055000
0.231434 0.247328 0.055000
0.300557 0.266757 0.055000
0.364712 0.290862 0.055000
0.425069 0.317702 0.055000
0.474811 0.348071 0.055000
0.521286 0.380127 0.055000
0.566064 0.411915 0.055000
0.608637 0.443643 0.055000
0.651929 0.474811 0.055000
0.694856 0.504354 0.055000
0.742200 0.530244 0.055000
0.790726 0.552405 0.055000
0.841170 0.571144 0.055000
0.893033 0.584984 0.055000
0.946240 0.593555 0.055000
1.000000 0.596322 0.055000
0.000000 0.259773 0.055000
0.073440 0.263024 0.055000
0.145084 0.272181 0.055000
0.213885 0.287665 0.055000
0.278508 0.307796 0.055000
0.339500 0.332140 0.055000
0.396373 0.360161 0.055000
0.443643 0.391363 0.055000
0.489347 0.423476 0.055000
0.533166 0.456314 0.055000
0.576524 0.489347 0.055000
0.619873 0.521286 0.055000
0.663805 0.552130 0.055000
0.714733 0.579561 0.055000
0.767631 0.603386 0.055000
0.822667 0.623186 0.055000
0.880375 0.637724 0.055000
0.939594 0.646984 0.055000
1.000000 0.649870 0.055000
0.000000 0.302753 0.055000
0.066862 0.305726 0.055000
0.132166 0.315012 0.055000
0.195322 0.330286 0.055000
0.255849 0.350791 0.055000
0.312166 0.375013 0.055000
0.365692 0.402879 0.055000
0.411915 0.433936 0.055000
0.456314 0.466834 0.055000
0.500000 0.500000 0.055000
0.543686 0.533166 0.055000
0.588085 0.566064 0.055000
0.634308 0.597121 0.055000
0.687834 0.624987 0.055000
0.744151 0.649209 0.055000
0.804678 0.669714 0.055000
0.867834 0.684988 0.055000
0.933137 0.694274 0.055000
1.000000 0.697247 0.055000
0.000000 0.350130 0.055000
0.060405 0.353015 0.055000
0.119625 0.362276 0.055000
0.177333 0.376814 0.055000
0.232369 0.396614 0.055000
0.285267 0.420439 0.055000
0.336195 0.447870 0.055000
0.380127 0.478714 0.055000
0.423476 0.510653 0.055000
0.466834 0.543686 0.055000
0.510653 0.576524 0.055000
0.556357 0.608637 0.055000
0.603627 0.639839 0.055000
0.660500 0.667860 0.055000
0.721492 0.692204 0.055000
0.786115 0.712335 0.055000
0.854916 0.727819 0.055000
0.926560 0.736976 0.055000
1.000000 0.740227 0.055000
0.000000 0.403678 0.055000
0.053760 0.406445 0.055000
0.106967 0.415016 0.055000
0.158830 0.428856 0.055000
0.209274 0.447595 0.055000
0.257800 0.469756 0.055000
0.305144 0.495646 0.055000
0.348071 0.525189 0.055000
0.391363 0.556357 0.055000
0.433936 0.588085 0.055000
0.478714 0.619873 0.055000
0.525189 0.651929 0.055000
0.574931 0.682298 0.055000
0.635288 0.709138 0.055000
0.699443 0.733243 0.055000
0.768566 0.752672 0.055000
0.842747 0.767323 0.055000
0.920045 0.776124 0.055000
1.000000 0.779152 0.055000
0.000000 0.464372 0.055000
0.047538 0.466644 0.055000
0.094875 0.474615 0.055000
0.141488 0.486962 0.055000
0.187255 0.504095 0.055000
0.231865 0.524475 0.055000
0.276134 0.547858 0.055000
0.317702 0.574931 0.055000
0.360161 0.603627 0.055000
0.402879 0.634308 0.055000
0.447870 0.663805 0.055000
0.495646 0.694856 0.055000
0.547858 0.723866 0.055000
0.609959 0.749172 0.055000
0.676780 0.772019 0.055000
0.750788 0.790030 0.055000
0.830326 0.804033 0.055000
0.913801 0.812183 0.055000
1.000000 0.815151 0.055000
0.000000 0.532925 0.055000
0.042542 0.535282 0.055000
0.084922 0.542683 0.055000
0.126513 0.553974 0.055000
0.168127 0.569377 0.055000
0.209445 0.588121 0.055000
0.250828 0.609959 0.055000
0.290862 0.635288 0.055000
0.332140 0.660500 0.055000
0.375013 0.687834 0.055000
0.420439 0.714733 0.055000
0.469756 0.742200 0.055000
0.524475 0.768135 0.055000
0.588121 0.790555 0.055000
0.657574 0.811031 0.055000
0.735546 0.827119 0.055000
0.819672 0.839638 0.055000
0.908316 0.846534 0.055000
1.000000 0.849468 0.055000
0.000000 0.610130 0.055000
0.037883 0.612055 0.055000
0.075605 0.618809 0.055000
0.112841 0.628488 0.055000
0.151123 0.641621 0.055000
0.188969 0.657574 0.055000
0.227981 0.676780 0.055000
0.266757 0.699443 0.055000
0.307796 0.721492 0.055000
0.350791 0.744151 0.055000
0.396614 0.767631 0.055000
0.447595 0.790726 0.055000
0.504095 0.812745 0.055000
0.569377 0.831873 0.055000
0.641621 0.848877 0.055000
0.722543 0.862404 0.055000
0.810662 0.873442 0.055000
0.903506 0.879343 0.055000
1.000000 0.882087 0.055000
0.000000 0.697275 0.055000
0.034389 0.698796 0.055000
0.068545 0.703966 0.055000
0.102514 0.711692 0.055000
0.137596 0.722543 0.055000
0.172881 0.735546 0.055000
0.209970 0.750788 0.055000
0.247328 0.768566 0.055000
0.287665 0.786115 0.055000
0.330286 0.804678 0.055000
0.376814 0.822667 0.055000
0.428856 0.841170 0.055000
0.486962 0.858512 0.055000
0.553974 0.873487 0.055000
0.628488 0.887159 0.055000
0.711692 0.897486 0.055000
0.803187 0.905857 0.055000
0.899616 0.910294 0.055000
1.000000 0.912442 0.055000
0.000000 0.793269 0.055000
0.031514 0.794248 0.055000
0.062745 0.797802 0.055000
0.094143 0.803187 0.055000
0.126558 0.810662 0.055000
0.160362 0.819672 0.055000
0.195967 0.830326 0.055000
0.232677 0.842747 0.055000
0.272181 0.854916 0.055000
0.315012 0.867834 0.055000
0.362276 0.880375 0.055000
0.415016 0.893033 0.055000
0.474615 0.905125 0.055000
0.542683 0.915078 0.055000
0.618809 0.924394 0.055000
0.703966 0.931455 0.055000
0.797802 0.937255 0.055000
0.896837 0.940451 0.055000
1.000000 0.941909 0.055000
0.000000 0.894486 0.055000
0.029678 0.894982 0.055000
0.059549 0.896837 0.055000
0.089706 0.899616 0.055000
0.120657 0.903506 0.055000
0.153466 0.908316 0.055000
0.187817 0.913801 0.055000
0.223876 0.920045 0.055000
0.263024 0.926560 0.055000
0.305726 0.933137 0.055000
0.353016 0.939594 0.055000
0.406445 0.946240 0.055000
0.466644 0.952462 0.055000
0.535282 0.957458 0.055000
0.612055 0.962117 0.055000
0.698796 0.965611 0.055000
0.794248 0.968486 0.055000
0.894982 0.970321 0.055000
1.000000 0.971081 0.055000
0.000000 1.000000 0.055000
0.028918 1.000000 0.055000
0.058091 1.000000 0.055000
0.087558 1.000000 0.055000
0.117913 1.000000 0.055000
0.150532 1.000000 0.055000
0.184849 1.000000 0.055000
0.220848 1.000000 0.055000
0.259773 1.000000 0.055000
0.302753 1.000000 0.055000
0.350130 1.000000 0.055000
0.403678 1.000000 0.055000
0.464372 1.000000 0.055000
0.532925 1.000000 0.055000
0.610130 1.000000 0.055000
0.697275 1.000000 0.055000
0.793269 1.000000 0.055000
0.894486 1.000000 0.055000
1.000000 1.000000 0.055000
0.000000 0.000000 0.110000
0.105513 0.000000 0.110000
0.206731 0.000000 0.110000
0.302725 0.000000 0.110000
0.389870 0.000000 0.110000
0.467075 0.000000 0.110000
0.535628 0.000000 0.110000
0.596322 0.000000 0.110000
0.649870 0.000000 0.110000
0.697247 0.000000 0.110000
0.740227 0.000000 0.110000
0.779152 0.000000 0.110000
0.815151 0.000000 0.110000
0.849468 0.000000 0.110000
0.882087 0.000000 0.110000
0.912442 0.000000 0.110000
0.941909 0.000000 0.110000