# vtk DataFile Version 2.0
Mesh for Fierro
ASCII 
DATASET UNSTRUCTURED_GRID

POINTS 2527 float
0.000000 0.000000 0.000000
0.366418 0.000000 0.000000
0.608327 0.000000 0.000000
0.713778 0.000000 0.000000
0.788540 0.000000 0.000000
0.830603 0.000000 0.000000
0.861155 0.000000 0.000000
0.884049 0.000000 0.000000
0.903363 0.000000 0.000000
0.917797 0.000000 0.000000
0.930295 0.000000 0.000000
0.941184 0.000000 0.000000
0.951003 0.000000 0.000000
0.959686 0.000000 0.000000
0.967863 0.000000 0.000000
0.976088 0.000000 0.000000
0.984031 0.000000 0.000000
0.992109 0.000000 0.000000
1.000000 0.000000 0.000000
0.000000 0.007901 0.000000
0.364991 0.009068 0.000000
0.603307 0.021304 0.000000
0.708959 0.034376 0.000000
0.783683 0.055446 0.000000
0.826808 0.084389 0.000000
0.857532 0.116363 0.000000
0.879790 0.146427 0.000000
0.897766 0.178005 0.000000
0.912313 0.211377 0.000000
0.924807 0.240453 0.000000
0.935883 0.270685 0.000000
0.945565 0.298936 0.000000
0.954839 0.319665 0.000000
0.963922 0.336633 0.000000
0.973070 0.349836 0.000000
0.982008 0.357638 0.000000
0.990939 0.365028 0.000000
1.000000 0.366312 0.000000
0.000000 0.015969 0.000000
0.357589 0.017967 0.000000
0.592429 0.041109 0.000000
0.702264 0.067179 0.000000
0.773063 0.106043 0.000000
0.814334 0.155508 0.000000
0.841105 0.211774 0.000000
0.861640 0.262018 0.000000
0.876305 0.314612 0.000000
0.886076 0.365343 0.000000
0.893360 0.412279 0.000000
0.899357 0.455310 0.000000
0.905514 0.494402 0.000000
0.915214 0.525937 0.000000
0.926623 0.553859 0.000000
0.941450 0.576083 0.000000
0.958894 0.592345 0.000000
0.978699 0.603300 0.000000
1.000000 0.608384 0.000000
0.000000 0.023947 0.000000
0.349841 0.026909 0.000000
0.576066 0.058550 0.000000
0.687666 0.095944 0.000000
0.753446 0.149061 0.000000
0.790872 0.211023 0.000000
0.811255 0.281525 0.000000
0.827747 0.339970 0.000000
0.832424 0.405446 0.000000
0.835629 0.462049 0.000000
0.836297 0.516738 0.000000
0.840333 0.564506 0.000000
0.845905 0.608529 0.000000
0.860504 0.640981 0.000000
0.878670 0.668994 0.000000
0.904046 0.687676 0.000000
0.932820 0.702264 0.000000
0.965605 0.708956 0.000000
1.000000 0.713781 0.000000
0.000000 0.032184 0.000000
0.336704 0.036066 0.000000
0.553907 0.073438 0.000000
0.668994 0.121328 0.000000
0.729162 0.185245 0.000000
0.763372 0.256344 0.000000
0.775806 0.335595 0.000000
0.787679 0.399941 0.000000
0.781147 0.470330 0.000000
0.778193 0.527618 0.000000
0.773674 0.579413 0.000000
0.775568 0.622846 0.000000
0.776041 0.664211 0.000000
0.792260 0.698400 0.000000
0.814749 0.729163 0.000000
0.850950 0.753443 0.000000
0.893961 0.773058 0.000000
0.944567 0.783692 0.000000
1.000000 0.788542 0.000000
0.000000 0.040391 0.000000
0.319591 0.045149 0.000000
0.525890 0.084804 0.000000
0.640954 0.139490 0.000000
0.698423 0.207726 0.000000
0.728673 0.282710 0.000000
0.735776 0.362276 0.000000
0.741943 0.429701 0.000000
0.726252 0.495277 0.000000
0.717284 0.551551 0.000000
0.705377 0.602375 0.000000
0.702638 0.647843 0.000000
0.699389 0.690901 0.000000
0.717271 0.728675 0.000000
0.743672 0.763360 0.000000
0.788985 0.790869 0.000000
0.844503 0.814309 0.000000
0.915581 0.826779 0.000000
1.000000 0.830610 0.000000
0.000000 0.049061 0.000000
0.299027 0.054476 0.000000
0.494434 0.094533 0.000000
0.608554 0.154083 0.000000
0.664207 0.223987 0.000000
0.690881 0.300561 0.000000
0.694304 0.379329 0.000000
0.691933 0.447264 0.000000
0.667981 0.507897 0.000000
0.654271 0.562118 0.000000
0.634798 0.610125 0.000000
0.629739 0.654353 0.000000
0.620663 0.694298 0.000000
0.637699 0.735799 0.000000
0.664481 0.775844 0.000000
0.718517 0.811281 0.000000
0.788164 0.841154 0.000000
0.883537 0.857550 0.000000
1.000000 0.861091 0.000000
0.000000 0.058866 0.000000
0.270630 0.064127 0.000000
0.455235 0.100643 0.000000
0.564543 0.159666 0.000000
0.622807 0.224431 0.000000
0.647839 0.297373 0.000000
0.654332 0.370258 0.000000
0.646997 0.435591 0.000000
0.622185 0.491707 0.000000
0.600903 0.547287 0.000000
0.577666 0.597058 0.000000
0.564395 0.646976 0.000000
0.552716 0.691899 0.000000
0.570285 0.741950 0.000000
0.600024 0.787651 0.000000
0.660037 0.827744 0.000000
0.737997 0.861697 0.000000
0.853602 0.879757 0.000000
1.000000 0.883889 0.000000
0.000000 0.069740 0.000000
0.240410 0.075193 0.000000
0.412340 0.106674 0.000000
0.516742 0.163709 0.000000
0.579402 0.226294 0.000000
0.602343 0.294619 0.000000
0.610143 0.365143 0.000000
0.597070 0.422344 0.000000
0.573929 0.474090 0.000000
0.550334 0.525555 0.000000
0.525919 0.573950 0.000000
0.508276 0.622174 0.000000
0.492031 0.667979 0.000000
0.504749 0.726252 0.000000
0.529650 0.781188 0.000000
0.594560 0.832430 0.000000
0.685231 0.876307 0.000000
0.821906 0.897741 0.000000
1.000000 0.903208 0.000000
0.000000 0.082307 0.000000
0.211459 0.087713 0.000000
0.365265 0.113884 0.000000
0.462052 0.164375 0.000000
0.527637 0.221834 0.000000
0.551538 0.282699 0.000000
0.562168 0.345785 0.000000
0.547280 0.399130 0.000000
0.525528 0.449667 0.000000
0.499998 0.500024 0.000000
0.474450 0.550348 0.000000
0.452710 0.600897 0.000000
0.437900 0.654238 0.000000
0.448472 0.717315 0.000000
0.472329 0.778186 0.000000
0.537888 0.835576 0.000000
0.634671 0.886102 0.000000
0.788416 0.912300 0.000000
1.000000 0.917374 0.000000
0.000000 0.096638 0.000000
0.178113 0.102271 0.000000
0.314758 0.123713 0.000000
0.405472 0.167533 0.000000
0.470339 0.218808 0.000000
0.495266 0.273763 0.000000
0.507965 0.332022 0.000000
0.491714 0.377804 0.000000
0.474052 0.426059 0.000000
0.449679 0.474465 0.000000
0.426053 0.525926 0.000000
0.402918 0.577686 0.000000
0.389830 0.634829 0.000000
0.397696 0.705380 0.000000
0.420543 0.773715 0.000000
0.483313 0.836302 0.000000
0.587660 0.893393 0.000000
0.759513 0.924729 0.000000
1.000000 0.929922 0.000000
0.000000 0.115925 0.000000
0.146430 0.120199 0.000000
0.262037 0.138340 0.000000
0.339981 0.172277 0.000000
0.399963 0.212322 0.000000
0.429676 0.258042 0.000000
0.447292 0.308065 0.000000
0.435626 0.352993 0.000000
0.422327 0.402939 0.000000
0.399099 0.452715 0.000000
0.377831 0.508290 0.000000
0.353007 0.564407 0.000000
0.345672 0.629754 0.000000
0.352155 0.702617 0.000000
0.377173 0.775585 0.000000
0.435437 0.840350 0.000000
0.544858 0.899418 0.000000
0.729467 0.935906 0.000000
1.000000 0.941040 0.000000
0.000000 0.138923 0.000000
0.116344 0.142471 0.000000
0.211747 0.158847 0.000000
0.281558 0.188688 0.000000
0.335575 0.224223 0.000000
0.362285 0.264253 0.000000
0.379301 0.305769 0.000000
0.370266 0.345702 0.000000
0.365166 0.389851 0.000000
0.345772 0.437870 0.000000
0.332037 0.492049 0.000000
0.308071 0.552712 0.000000
0.305761 0.620686 0.000000
0.309074 0.699387 0.000000
0.335839 0.776004 0.000000
0.391440 0.845949 0.000000
0.505697 0.905526 0.000000
0.701079 0.945604 0.000000
1.000000 0.950593 0.000000
0.000000 0.169368 0.000000
0.084447 0.173179 0.000000
0.155465 0.185683 0.000000
0.211052 0.209102 0.000000
0.256308 0.236585 0.000000
0.282705 0.271278 0.000000
0.300601 0.309064 0.000000
0.297383 0.352170 0.000000
0.294617 0.397683 0.000000
0.282680 0.448482 0.000000
0.273737 0.504720 0.000000
0.258041 0.570295 0.000000
0.264251 0.637711 0.000000
0.271292 0.717289 0.000000
0.301670 0.792253 0.000000
0.358982 0.860550 0.000000
0.474206 0.915207 0.000000
0.680309 0.954876 0.000000
1.000000 0.959427 0.000000
0.000000 0.211399 0.000000
0.055450 0.216263 0.000000
0.106034 0.226948 0.000000
0.149090 0.246565 0.000000
0.185271 0.270932 0.000000
0.207768 0.301672 0.000000
0.223988 0.335843 0.000000
0.224389 0.377187 0.000000
0.226295 0.420529 0.000000
0.221816 0.472345 0.000000
0.218824 0.529629 0.000000
0.212344 0.600044 0.000000
0.224211 0.664420 0.000000
0.236599 0.743687 0.000000
0.270918 0.814719 0.000000
0.330886 0.878689 0.000000
0.446376 0.926576 0.000000
0.663113 0.964002 0.000000
1.000000 0.967716 0.000000
0.000000 0.286188 0.000000
0.034378 0.291057 0.000000
0.067132 0.297756 0.000000
0.095909 0.312295 0.000000
0.121303 0.330902 0.000000
0.139456 0.358971 0.000000
0.154018 0.391472 0.000000
0.159654 0.435451 0.000000
0.163695 0.483313 0.000000
0.164456 0.537842 0.000000
0.167567 0.594561 0.000000
0.172273 0.660029 0.000000
0.188720 0.718466 0.000000
0.209114 0.788969 0.000000
0.246570 0.850913 0.000000
0.312288 0.904089 0.000000
0.423943 0.941350 0.000000
0.649665 0.973103 0.000000
1.000000 0.975846 0.000000
0.000000 0.391737 0.000000
0.021338 0.396648 0.000000
0.041185 0.407643 0.000000
0.058665 0.423939 0.000000
0.073452 0.446346 0.000000
0.084813 0.474216 0.000000
0.094493 0.505708 0.000000
0.100604 0.544851 0.000000
0.106652 0.587619 0.000000
0.113920 0.634665 0.000000
0.123696 0.685231 0.000000
0.138311 0.738013 0.000000
0.158847 0.788136 0.000000
0.185687 0.844523 0.000000
0.226944 0.893963 0.000000
0.297764 0.932864 0.000000
0.407609 0.958839 0.000000
0.641773 0.982028 0.000000
1.000000 0.983966 0.000000
0.000000 0.633516 0.000000
0.009057 0.634634 0.000000
0.017959 0.641738 0.000000
0.026887 0.649635 0.000000
0.035997 0.663005 0.000000
0.045123 0.680184 0.000000
0.054409 0.700841 0.000000
0.064097 0.729356 0.000000
0.075269 0.759384 0.000000
0.087711 0.788433 0.000000
0.102264 0.821843 0.000000
0.120239 0.853589 0.000000
0.142446 0.883512 0.000000
0.173202 0.915552 0.000000
0.216278 0.944556 0.000000
0.291042 0.965600 0.000000
0.396620 0.978693 0.000000
0.634722 0.990960 0.000000
1.000000 0.992138 0.000000
0.000000 1.000000 0.000000
0.007901 1.000000 0.000000
0.016088 1.000000 0.000000
0.024192 1.000000 0.000000
0.032355 1.000000 0.000000
0.040571 1.000000 0.000000
0.049414 1.000000 0.000000
0.059002 1.000000 0.000000
0.070090 1.000000 0.000000
0.082672 1.000000 0.000000
0.096849 1.000000 0.000000
0.116155 1.000000 0.000000
0.138932 1.000000 0.000000
0.169397 1.000000 0.000000
0.211442 1.000000 0.000000
0.286154 1.000000 0.000000
0.391703 1.000000 0.000000
0.633573 1.000000 0.000000
1.000000 1.000000 0.000000
0.000000 0.000000 0.055167
0.366577 0.000000 0.055035
0.608135 0.000000 0.055007
0.713771 0.000000 0.055014
0.788553 0.000000 0.054981
[...]
POINT_DATA 2527 
VECTORS pos float 
0.000000 0.000000 0.000000
0.366418 0.000000 0.000000
0.608327 0.000000 0.000000
0.713778 0.000000 0.000000
0.788540 0.000000 0.000000
0.830603 0.000000 0.000000
0.861155 0.000000 0.000000
0.884049 0.000000 0.000000
0.903363 0.000000 0.000000
0.917797 0.000000 0.000000
0.930295 0.000000 0.000000
0.941184 0.000000 0.000000
0.951003 0.000000 0.000000
0.959686 0.000000 0.000000
0.967863 0.000000 0.000000
0.976088 0.000000 0.000000
0.984031 0.000000 0.000000
0.992109 0.000000 0.000000
1.000000 0.000000 0.000000
0.000000 0.007901 0.000000
0.364991 0.009068 0.000000
0.603307 0.021304 0.000000
0.708959 0.034376 0.000000
0.783683 0.055446 0.000000
0.826808 0.084389 0.000000
0.857532 0.116363 0.000000
0.879790 0.146427 0.000000
0.897766 0.178005 0.000000
0.912313 0.211377 0.000000
0.924807 0.240453 0.000000
0.935883 0.270685 0.000000
0.945565 0.298936 0.000000
0.954839 0.319665 0.000000
0.963922 0.336633 0.000000
0.973070 0.349836 0.000000
0.982008 0.357638 0.000000
0.990939 0.365028 0.000000
1.000000 0.366312 0.000000
0.000000 0.015969 0.000000
0.357589 0.017967 0.000000
0.592429 0.041109 0.000000
0.702264 0.067179 0.000000
0.773063 0.106043 0.000000
0.814334 0.155508 0.000000
0.841105 0.211774 0.000000
0.861640 0.262018 0.000000
0.876305 0.314612 0.000000
0.886076 0.365343 0.000000
0.893360 0.412279 0.000000
0.899357 0.455310 0.000000
0.905514 0.494402 0.000000
0.915214 0.525937 0.000000
0.926623 0.553859 0.000000
0.941450 0.576083 0.000000
0.958894 0.592345 0.000000
0.978699 0.603300 0.000000
1.000000 0.608384 0.000000
0.000000 0.023947 0.000000
0.349841 0.026909 0.000000
0.576066 0.058550 0.000000
0.687666 0.095944 0.000000
0.753446 0.149061 0.000000
0.790872 0.211023 0.000000
0.811255 0.281525 0.000000
0.827747 0.339970 0.000000
0.832424 0.405446 0.000000
0.835629 0.462049 0.000000
0.836297 0.516738 0.000000
0.840333 0.564506 0.000000
0.845905 0.608529 0.000000
0.860504 0.640981 0.000000
0.878670 0.668994 0.000000
0.904046 0.687676 0.000000
0.932820 0.702264 0.000000
0.965605 0.708956 0.000000
1.000000 0.713781 0.000000
0.000000 0.032184 0.000000
0.336704 0.036066 0.000000
0.553907 0.073438 0.000000
0.668994 0.121328 0.000000
0.729162 0.185245 0.000000
0.763372 0.256344 0.000000
0.775806 0.335595 0.000000
0.787679 0.399941 0.000000
0.781147 0.470330 0.000000
0.778193 0.527618 0.000000
0.773674 0.579413 0.000000
0.775568 0.622846 0.000000
0.776041 0.664211 0.000000
0.792260 0.698400 0.000000
0.814749 0.729163 0.000000
0.850950 0.753443 0.000000
0.893961 0.773058 0.000000
0.944567 0.783692 0.000000
1.000000 0.788542 0.000000
0.000000 0.040391 0.000000
0.319591 0.045149 0.000000
0.525890 0.084804 0.000000
0.640954 0.139490 0.000000
0.698423 0.207726 0.000000
0.728673 0.282710 0.000000
0.735776 0.362276 0.000000
0.741943 0.429701 0.000000
0.726252 0.495277 0.000000
0.717284 0.551551 0.000000
0.705377 0.602375 0.000000
0.702638 0.647843 0.000000
0.699389 0.690901 0.000000
0.717271 0.728675 0.000000
0.743672 0.763360 0.000000
0.788985 0.790869 0.000000
0.844503 0.814309 0.000000
0.915581 0.826779 0.000000
1.000000 0.830610 0.000000
0.000000 0.049061 0.000000
0.299027 0.054476 0.000000
0.494434 0.094533 0.000000
0.608554 0.154083 0.000000
0.664207 0.223987 0.000000
0.690881 0.300561 0.000000
0.694304 0.379329 0.000000
0.691933 0.447264 0.000000
0.667981 0.507897 0.000000
0.654271 0.562118 0.000000
0.634798 0.610125 0.000000
0.629739 0.654353 0.000000
0.620663 0.694298 0.000000
0.637699 0.735799 0.000000
0.664481 0.775844 0.000000
0.718517 0.811281 0.000000
0.788164 0.841154 0.000000
0.883537 0.857550 0.000000
1.000000 0.861091 0.000000
0.000000 0.058866 0.000000
0.270630 0.064127 0.000000
0.455235 0.100643 0.000000
0.564543 0.159666 0.000000
0.622807 0.224431 0.000000
0.647839 0.297373 0.000000
0.654332 0.370258 0.000000
0.646997 0.435591 0.000000
0.622185 0.491707 0.000000
0.600903 0.547287 0.000000
0.577666 0.597058 0.000000
0.564395 0.646976 0.000000
0.552716 0.691899 0.000000
0.570285 0.741950 0.000000
0.600024 0.787651 0.000000
0.660037 0.827744 0.000000
0.737997 0.861697 0.000000
0.853602 0.879757 0.000000
1.000000 0.883889 0.000000
0.000000 0.069740 0.000000
0.240410 0.075193 0.000000
0.412340 0.106674 0.000000
0.516742 0.163709 0.000000
0.579402 0.226294 0.000000
0.602343 0.294619 0.000000
0.610143 0.365143 0.000000
0.597070 0.422344 0.000000
0.573929 0.474090 0.000000
0.550334 0.525555 0.000000
0.525919 0.573950 0.000000
0.508276 0.622174 0.000000
0.492031 0.667979 0.000000
0.504749 0.726252 0.000000
0.529650 0.781188 0.000000
0.594560 0.832430 0.000000
0.685231 0.876307 0.000000
0.821906 0.897741 0.000000
1.000000 0.903208 0.000000
0.000000 0.082307 0.000000
0.211459 0.087713 0.000000
0.365265 0.113884 0.000000
0.462052 0.164375 0.000000
0.527637 0.221834 0.000000
0.551538 0.282699 0.000000
0.562168 0.345785 0.000000
0.547280 0.399130 0.000000
0.525528 0.449667 0.000000
0.499998 0.500024 0.000000
0.474450 0.550348 0.000000
0.452710 0.600897 0.000000
0.437900 0.654238 0.000000
0.448472 0.717315 0.000000
0.472329 0.778186 0.000000
0.537888 0.835576 0.000000
0.634671 0.886102 0.000000
0.788416 0.912300 0.000000
1.000000 0.917374 0.000000
0.000000 0.096638 0.000000
0.178113 0.102271 0.000000
0.314758 0.123713 0.000000
0.405472 0.167533 0.000000
0.470339 0.218808 0.000000
0.495266 0.273763 0.000000
0.507965 0.332022 0.000000
0.491714 0.377804 0.000000
0.474052 0.426059 0.000000
0.449679 0.474465 0.000000
0.426053 0.525926 0.000000
0.402918 0.577686 0.000000
0.389830 0.634829 0.000000
0.397696 0.705380 0.000000
0.420543 0.773715 0.000000
0.483313 0.836302 0.000000
0.587660 0.893393 0.000000
0.759513 0.924729 0.000000
1.000000 0.929922 0.000000
0.000000 0.115925 0.000000
0.146430 0.120199 0.000000
0.262037 0.138340 0.000000
0.339981 0.172277 0.000000
0.399963 0.212322 0.000000
0.429676 0.258042 0.000000
0.447292 0.308065 0.000000
0.435626 0.352993 0.000000
0.422327 0.402939 0.000000
0.399099 0.452715 0.000000
0.377831 0.508290 0.000000
0.353007 0.564407 0.000000
0.345672 0.629754 0.000000
0.352155 0.702617 0.000000
0.377173 0.775585 0.000000
0.435437 0.840350 0.000000
0.544858 0.899418 0.000000
0.729467 0.935906 0.000000
1.000000 0.941040 0.000000
0.000000 0.138923 0.000000
0.116344 0.142471 0.000000
0.211747 0.158847 0.000000
0.281558 0.188688 0.000000
0.335575 0.224223 0.000000
0.362285 0.264253 0.000000
0.379301 0.305769 0.000000
0.370266 0.345702 0.000000
0.365166 0.389851 0.000000
0.345772 0.437870 0.000000
0.332037 0.492049 0.000000
0.308071 0.552712 0.000000
0.305761 0.620686 0.000000
0.309074 0.699387 0.000000
0.335839 0.776004 0.000000
0.391440 0.845949 0.000000
0.505697 0.905526 0.000000
0.701079 0.945604 0.000000
1.000000 0.950593 0.000000
0.000000 0.169368 0.000000
0.084447 0.173179 0.000000
0.155465 0.185683 0.000000
0.211052 0.209102 0.000000
0.256308 0.236585 0.000000
0.282705 0.271278 0.000000
0.300601 0.309064 0.000000
0.297383 0.352170 0.000000
0.294617 0.397683 0.000000
0.282680 0.448482 0.000000
0.273737 0.504720 0.000000
0.258041 0.570295 0.000000
0.264251 0.637711 0.000000
0.271292 0.717289 0.000000
0.301670 0.792253 0.000000
0.358982 0.860550 0.000000
0.474206 0.915207 0.000000
0.680309 0.954876 0.000000
1.000000 0.959427 0.000000
0.000000 0.211399 0.000000
0.055450 0.216263 0.000000
0.106034 0.226948 0.000000
0.149090 0.246565 0.000000
0.185271 0.270932 0.000000
0.207768 0.301672 0.000000
0.223988 0.335843 0.000000
0.224389 0.377187 0.000000
0.226295 0.420529 0.000000
0.221816 0.472345 0.000000
0.218824 0.529629 0.000000
0.212344 0.600044 0.000000
0.224211 0.664420 0.000000
0.236599 0.743687 0.000000
0.270918 0.814719 0.000000
0.330886 0.878689 0.000000
0.446376 0.926576 0.000000
0.663113 0.964002 0.000000
1.000000 0.967716 0.000000
0.000000 0.286188 0.000000
0.034378 0.291057 0.000000
0.067132 0.297756 0.000000
0.095909 0.312295 0.000000
0.121303 0.330902 0.000000
0.139456 0.358971 0.000000
0.154018 0.391472 0.000000
0.159654 0.435451 0.000000
0.163695 0.483313 0.000000
0.164456 0.537842 0.000000
0.167567 0.594561 0.000000
0.172273 0.660029 0.000000
0.188720 0.718466 0.000000
0.209114 0.788969 0.000000
0.246570 0.850913 0.000000
0.312288 0.904089 0.000000
0.423943 0.941350 0.000000
0.649665 0.973103 0.000000
1.000000 0.975846 0.000000
0.000000 0.391737 0.000000
0.021338 0.396648 0.000000
0.041185 0.407643 0.000000
0.058665 0.423939 0.000000
0.073452 0.446346 0.000000
0.084813 0.474216 0.000000
0.094493 0.505708 0.000000
0.100604 0.544851 0.000000
0.106652 0.587619 0.000000
0.113920 0.634665 0.000000
0.123696 0.685231 0.000000
0.138311 0.738013 0.000000
0.158847 0.788136 0.000000
0.185687 0.844523 0.000000
0.226944 0.893963 0.000000
0.297764 0.932864 0.000000
0.407609 0.958839 0.000000
0.641773 0.982028 0.000000
1.000000 0.983966 0.000000
0.000000 0.633516 0.000000
0.009057 0.634634 0.000000
0.017959 0.641738 0.000000
0.026887 0.649635 0.000000
0.035997 0.663005 0.000000
0.045123 0.680184 0.000000
0.054409 0.700841 0.000000
0.064097 0.729356 0.000000
0.075269 0.759384 0.000000
0.087711 0.788433 0.000000
0.102264 0.821843 0.000000
0.120239 0.853589 0.000000
0.142446 0.883512 0.000000
0.173202 0.915552 0.000000
0.216278 0.944556 0.000000
0.291042 0.965600 0.000000
0.396620 0.978693 0.000000
0.634722 0.990960 0.000000
1.000000 0.992138 0.000000
0.000000 1.000000 0.000000
0.007901 1.000000 0.000000
0.016088 1.000000 0.000000
0.024192 1.000000 0.000000
0.032355 1.000000 0.000000
0.040571 1.000000 0.000000
0.049414 1.000000 0.000000
0.059002 1.000000 0.000000
0.070090 1.000000 0.000000
0.082672 1.000000 0.000000
0.096849 1.000000 0.000000
0.116155 1.000000 0.000000
0.138932 1.000000 0.000000
0.169397 1.000000 0.000000
0.211442 1.000000 0.000000
0.286154 1.000000 0.000000
0.391703 1.000000 0.000000
0.633573 1.000000 0.000000
1.000000 1.000000 0.000000
0.000000 0.000000 0.055167
0.366577 0.000000 0.055035
0.608135 0.000000 0.055007
0.713771 0.000000 0.055014
0.788553 0.000000 0.054981
0.830632 0.000000 0.055002
0.861207 0.000000 0.055007
0.883936 0.000000 0.054948
0.903230 0.000000 0.055051
0.917484 0.000000 0.055044
0.930060 0.000000 0.055070
0.941045 0.000000 0.054909
0.950626 0.000000 0.054962
0.959499 0.000000 0.054939
0.967748 0.000000 0.055059
0.975939 0.000000 0.054978
0.984026 0.000000 0.055075
0.992061 0.000000 0.055141
1.000000 0.000000 0.055092
0.000000 0.007932 0.055194
0.365355 0.009074 0.055046
0.603286 0.021354 0.055002
0.708941 0.034355 0.054989
0.783711 0.055478 0.055005
0.826812 0.084392 0.054979
0.857587 0.116351 0.054990
0.879758 0.146475 0.054996
0.897757 0.178136 0.054985
0.912313 0.211638 0.054976
0.924792 0.240569 0.055017
0.935925 0.270474 0.054971
0.945565 0.299213 0.054953
0.954838 0.319959 0.055021
0.963958 0.337118 0.055004
0.973095 0.350244 0.055013
0.982056 0.358087 0.055047
0.990920 0.365397 0.055023
1.000000 0.366717 0.055036
0.000000 0.015965 0.055064
0.358041 0.017950 0.055048
0.592426 0.041162 0.054994
0.702243 0.067145 0.054997
0.773075 0.106068 0.054979
0.814336 0.155493 0.055005
0.841180 0.211755 0.054980
0.861698 0.262054 0.055011
0.876342 0.314784 0.054971
0.886120 0.365318 0.054988
0.893399 0.412239 0.055001
0.899420 0.454995 0.055002
0.905378 0.494477 0.055003
0.915136 0.525809 0.054994
0.926530 0.553703 0.055012
0.941377 0.576059 0.055001
0.958839 0.592390 0.055001
0.978643 0.603291 0.055006
1.000000 0.608137 0.055005
0.000000 0.024050 0.054957
0.350228 0.026909 0.054988
0.576059 0.058607 0.054998
0.687629 0.095911 0.054981
0.753481 0.149081 0.055012
0.790875 0.211041 0.054999
0.811324 0.281493 0.055014
0.827733 0.340002 0.054990
0.832451 0.405429 0.055004
0.835609 0.462113 0.055022
0.836305 0.516700 0.054996
0.840344 0.564491 0.055003
0.845891 0.608623 0.055003
0.860550 0.641025 0.054979
0.878725 0.669057 0.054996
0.904114 0.687631 0.054983
0.932863 0.702248 0.054987
0.965643 0.708941 0.054992
1.000000 0.713767 0.055001
0.000000 0.032237 0.054996
0.337082 0.036041 0.054979
0.553703 0.073442 0.054990
0.669039 0.121289 0.055004
0.729104 0.185256 0.054993
0.763375 0.256307 0.055000
0.775824 0.335543 0.054996
0.787663 0.399956 0.055004
0.781187 0.470395 0.054996
0.778206 0.527625 0.054999
0.773703 0.579424 0.054998
0.775602 0.622803 0.055006
0.776022 0.664162 0.055010
0.792269 0.698339 0.055014
0.814746 0.729086 0.054998
0.850913 0.753471 0.055017
0.893918 0.773078 0.055002
0.944530 0.783704 0.054998
1.000000 0.788546 0.054973
0.000000 0.040456 0.054937
0.320027 0.045178 0.054988
0.525836 0.084851 0.054995
0.641024 0.139462 0.054994
0.698336 0.207734 0.055012
0.728722 0.282726 0.054986
0.735732 0.362332 0.055006
0.741972 0.429721 0.055007
0.726233 0.495308 0.055011
0.717318 0.551537 0.054994
0.705399 0.602344 0.054996
0.702585 0.647843 0.055014
0.699468 0.690906 0.054997
0.717281 0.728721 0.054988
0.743696 0.763394 0.054997
0.788944 0.790882 0.054983
0.844520 0.814323 0.054998
0.915613 0.826813 0.054992
1.000000 0.830657 0.055017
0.000000 0.049307 0.054955
0.299157 0.054435 0.054938
0.494463 0.094596 0.055032
0.608628 0.154116 0.054998
0.664162 0.223989 0.055004
0.690924 0.300567 0.055001
0.694243 0.379242 0.055005
0.691940 0.447277 0.054999
0.667949 0.507945 0.054996
0.654259 0.562140 0.054998
0.634827 0.610141 0.055007
0.629675 0.654304 0.054997
0.620760 0.694233 0.055013
0.637691 0.735715 0.054993
0.664438 0.775814 0.055003
0.718466 0.811329 0.055000
0.788244 0.841163 0.055007
0.883628 0.857574 0.055013
1.000000 0.861217 0.054997
0.000000 0.058930 0.054925
0.270524 0.064083 0.054976
0.455037 0.100585 0.054998
0.564470 0.159635 0.055012
0.622799 0.224391 0.054987
0.647834 0.297395 0.055009
0.654324 0.370292 0.054993
0.646998 0.435589 0.055002
0.622185 0.491692 0.054995
0.600904 0.547294 0.054997
0.577671 0.597036 0.055004
0.564387 0.647000 0.054996
0.552726 0.691942 0.054986
0.570298 0.741972 0.055004
0.600026 0.787665 0.054999
0.660008 0.827738 0.054996
0.737954 0.861692 0.054989
0.853500 0.879774 0.055010
1.000000 0.884038 0.055037
0.000000 0.069937 0.055028
0.240467 0.075201 0.055024
0.412268 0.106606 0.055028
0.516699 0.163713 0.055002
0.579409 0.226249 0.055021
0.602331 0.294599 0.055012
0.610148 0.365167 0.055010
0.597052 0.422348 0.054988
0.573926 0.474081 0.054994
0.550358 0.525536 0.055008
0.525928 0.573932 0.055005
0.508330 0.622184 0.055006
0.492067 0.667966 0.055007
0.504696 0.726233 0.055022
0.529630 0.781176 0.055012
0.594555 0.832461 0.054976
0.685194 0.876325 0.055000
0.821822 0.897755 0.055008
1.000000 0.903321 0.054973
0.000000 0.082479 0.055023
0.211588 0.087677 0.054988
0.365274 0.113850 0.055016
0.462111 0.164398 0.054988
0.527654 0.221827 0.055011
0.551553 0.282707 0.054998
0.562138 0.345766 0.055006
0.547298 0.399094 0.055003
0.525549 0.449644 0.055006
0.500005 0.500007 0.055002
0.474445 0.550371 0.055010
0.452708 0.600923 0.055003
0.437850 0.654250 0.054995
0.448487 0.717336 0.054989
0.472364 0.778206 0.055005
0.537890 0.835603 0.055015
0.634705 0.886138 0.054999
0.788437 0.912318 0.055004
1.000000 0.917636 0.055085
0.000000 0.096730 0.055064
0.178171 0.102260 0.054984
0.314782 0.123664 0.055002
0.405435 0.167541 0.054996
0.470370 0.218804 0.055002
0.495294 0.273753 0.054986
0.507955 0.332043 0.055000
0.491681 0.377816 0.054997
0.474083 0.426078 0.054987
0.449642 0.474450 0.055014
0.426074 0.525930 0.054991
0.402944 0.577651 0.055006
0.389850 0.634798 0.054999
0.397667 0.705364 0.055003
0.420555 0.773710 0.054977
0.483314 0.836313 0.054985
0.587763 0.893377 0.054991
0.759591 0.924790 0.054988
1.000000 0.930180 0.055022
0.000000 0.116037 0.054953
0.146475 0.120233 0.055005
0.262055 0.138313 0.055004
0.339999 0.172268 0.055005
0.399961 0.212338 0.054991
0.429702 0.258031 0.054996
0.447269 0.308048 0.054995
0.435621 0.352997 0.055000
0.422334 0.402952 0.055002
0.399083 0.452706 0.055003
0.377821 0.508328 0.055001
0.352977 0.564398 0.054986
0.345679 0.629713 0.055022
0.352176 0.702638 0.055008
0.377180 0.775585 0.055023
0.435527 0.840367 0.054996
0.544872 0.899376 0.055006
0.729504 0.935902 0.054987
1.000000 0.941191 0.055064
0.000000 0.138805 0.055010
0.116328 0.142439 0.055010
0.211728 0.158825 0.054984
0.281473 0.188681 0.055010
0.335541 0.224171 0.055018
0.362298 0.264268 0.055020
0.379238 0.305750 0.054976
0.370316 0.345680 0.055006
0.365187 0.389857 0.054988
0.345728 0.437873 0.054999
0.332045 0.492063 0.055001
0.308044 0.552715 0.054979
0.305757 0.620761 0.055013
0.309101 0.699448 0.055008
0.335772 0.775986 0.054970
0.391460 0.845921 0.055009
0.505504 0.905433 0.054984
0.701034 0.945552 0.055008
1.000000 0.950947 0.054983
0.000000 0.169345 0.054994
0.084426 0.173192 0.054992
0.155517 0.185695 0.054991
0.211063 0.209129 0.054990
0.256321 0.236627 0.054985
0.282759 0.271284 0.054998
0.300497 0.309116 0.055004
0.297385 0.352167 0.054992
0.294611 0.397656 0.055011
0.282692 0.448447 0.055006
0.273756 0.504697 0.054986
0.258022 0.570319 0.055002
0.264282 0.637696 0.055009
0.271280 0.717263 0.054995
0.301643 0.792297 0.054999
0.359006 0.860536 0.054997
0.474050 0.915149 0.055003
0.680278 0.954813 0.054991
1.000000 0.959652 0.054955
0.000000 0.211422 0.055000
0.055439 0.216272 0.055018
0.106042 0.226939 0.055005
0.149051 0.246552 0.054994
0.185274 0.270871 0.055000
0.207712 0.301642 0.054997
0.223960 0.335796 0.055000
0.224402 0.377179 0.055007
0.226271 0.420580 0.055003
0.221810 0.472344 0.055016
0.218804 0.529615 0.054992
0.212334 0.600027 0.054989
0.224172 0.664464 0.055018
0.236625 0.743674 0.054996
0.270874 0.814752 0.054996
0.330975 0.878706 0.054994
0.446155 0.926563 0.054998
0.663081 0.963909 0.055027
1.000000 0.967799 0.054953
0.000000 0.286201 0.054986
0.034374 0.291039 0.054988
0.067157 0.297715 0.055001
0.095919 0.312349 0.055014
0.121308 0.330968 0.054989
0.139442 0.359036 0.054997
0.154066 0.391470 0.055007
0.159645 0.435512 0.055012
0.163685 0.483310 0.054993
0.164388 0.537892 0.055010
0.167534 0.594563 0.054986
0.172278 0.659996 0.055013
0.188677 0.718512 0.055004
0.209120 0.788940 0.054983
0.246543 0.850926 0.054997
0.312362 0.904091 0.055008
0.423935 0.941430 0.054995
0.649969 0.973048 0.055015
1.000000 0.976008 0.054993
0.000000 0.391725 0.055000
0.021327 0.396687 0.055003
0.041129 0.407637 0.054989
0.058572 0.423892 0.054985
0.073411 0.446195 0.055006
0.084830 0.474069 0.055007
0.094562 0.505521 0.055007
0.100607 0.544892 0.055008
0.106608 0.587782 0.054986
0.113872 0.634689 0.055017
0.123671 0.685216 0.055006
0.138315 0.737912 0.054986
0.158820 0.788283 0.055010
0.185690 0.844489 0.054983
0.226937 0.893952 0.055008
0.297717 0.932839 0.055001
0.407636 0.958865 0.054993
0.642138 0.981992 0.055000
1.000000 0.983999 0.055028
0.000000 0.633473 0.055022
0.009082 0.634858 0.055007
0.018004 0.642181 0.055023
0.026940 0.650033 0.055027
0.036073 0.663142 0.055033
0.045176 0.680280 0.054997
0.054446 0.700967 0.055015
0.064094 0.729487 0.054957
0.075213 0.759530 0.054966
0.087684 0.788376 0.055018
0.102242 0.821822 0.055006
0.120225 0.853502 0.055013
0.142429 0.883659 0.055015
0.173195 0.915584 0.054994
0.216280 0.944557 0.055009
0.291046 0.965625 0.054993
0.396694 0.978671 0.055000
0.634831 0.990907 0.054999
1.000000 0.992076 0.054914
0.000000 1.000000 0.054786
0.007913 1.000000 0.054833
0.015987 1.000000 0.055010
0.023984 1.000000 0.055046
0.032173 1.000000 0.055015
0.040349 1.000000 0.054990
0.049069 1.000000 0.054910
0.058796 1.000000 0.054968
0.069819 1.000000 0.054990
0.082361 1.000000 0.055082
0.096678 1.000000 0.054979
0.115970 1.000000 0.055015
0.138788 1.000000 0.055015
0.169348 1.000000 0.055028
0.211441 1.000000 0.054983
0.286201 1.000000 0.054999
0.391720 1.000000 0.054990
0.633493 1.000000 0.055019
1.000000 1.000000 0.054865
0.000000 0.000000 0.109904
0.366473 0.000000 0.110002
0.608359 0.000000 0.110011
0.713816 0.000000 0.109963
0.788583 0.000000 0.110022
0.830605 0.000000 0.109976
0.861183 0.000000 0.110039
0.884005 0.000000 0.110056
0.903318 0.000000 0.109982
0.917649 0.000000 0.110014
0.930225 0.000000 0.110047
0.941161 0.000000 0.110005
0.950828 0.000000 0.109903
0.959572 0.000000 0.109963
0.967759 0.000000 0.109955
0.975920 0.000000 0.109970
0.983929 0.000000 0.109906