# vtk DataFile Version 2.0
Mesh for Fierro
ASCII 
DATASET UNSTRUCTURED_GRID

POINTS 2527 float
0.000000 0.000000 0.000000
0.119108 0.000000 0.000000
0.231903 0.000000 0.000000
0.336089 0.000000 0.000000
0.427659 0.000000 0.000000
0.506521 0.000000 0.000000
0.574610 0.000000 0.000000
0.633274 0.000000 0.000000
0.685148 0.000000 0.000000
0.729508 0.000000 0.000000
0.769157 0.000000 0.000000
0.804706 0.000000 0.000000
0.836768 0.000000 0.000000
0.866919 0.000000 0.000000
0.895416 0.000000 0.000000
0.922842 0.000000 0.000000
0.949387 0.000000 0.000000
0.974763 0.000000 0.000000
1.000000 0.000000 0.000000
0.000000 0.025237 0.000000
0.118486 0.026232 0.000000
0.230687 0.028132 0.000000
0.334505 0.032027 0.000000
0.425485 0.036847 0.000000
0.503891 0.042865 0.000000
0.571873 0.048946 0.000000
0.630045 0.056389 0.000000
0.681511 0.064381 0.000000
0.725698 0.072261 0.000000
0.765140 0.080172 0.000000
0.800737 0.088096 0.000000
0.832884 0.095758 0.000000
0.863179 0.102368 0.000000
0.891761 0.108104 0.000000
0.920059 0.112862 0.000000
0.947344 0.116146 0.000000
0.973768 0.118486 0.000000
1.000000 0.119108 0.000000
0.000000 0.050613 0.000000
0.116146 0.052656 0.000000
0.226385 0.056951 0.000000
0.328349 0.064391 0.000000
0.417780 0.073123 0.000000
0.495366 0.084726 0.000000
0.562569 0.096761 0.000000
0.620007 0.111269 0.000000
0.670603 0.126709 0.000000
0.714927 0.141913 0.000000
0.754296 0.157682 0.000000
0.790311 0.172411 0.000000
0.823081 0.187460 0.000000
0.854783 0.200322 0.000000
0.884632 0.211013 0.000000
0.914534 0.220099 0.000000
0.943049 0.226385 0.000000
0.971868 0.230687 0.000000
1.000000 0.231903 0.000000
0.000000 0.077158 0.000000
0.112862 0.079941 0.000000
0.220099 0.085466 0.000000
0.319452 0.096321 0.000000
0.406494 0.108742 0.000000
0.482282 0.125109 0.000000
0.548456 0.143031 0.000000
0.604207 0.163913 0.000000
0.653522 0.186462 0.000000
0.696940 0.208105 0.000000
0.735843 0.230689 0.000000
0.772546 0.251638 0.000000
0.806173 0.272995 0.000000
0.839325 0.290904 0.000000
0.871518 0.306429 0.000000
0.903679 0.319452 0.000000
0.935609 0.328349 0.000000
0.967972 0.334505 0.000000
1.000000 0.336089 0.000000
0.000000 0.104584 0.000000
0.108104 0.108239 0.000000
0.211013 0.115368 0.000000
0.306429 0.128482 0.000000
0.391200 0.144324 0.000000
0.464318 0.165121 0.000000
0.528754 0.187918 0.000000
0.582828 0.214050 0.000000
0.630625 0.241955 0.000000
0.673325 0.270044 0.000000
0.712457 0.297111 0.000000
0.749825 0.323130 0.000000
0.784689 0.349836 0.000000
0.820306 0.372362 0.000000
0.855676 0.391200 0.000000
0.891258 0.406494 0.000000
0.926877 0.417780 0.000000
0.963153 0.425485 0.000000
1.000000 0.427659 0.000000
0.000000 0.133081 0.000000
0.102368 0.136821 0.000000
0.200322 0.145217 0.000000
0.290904 0.160675 0.000000
0.372362 0.179694 0.000000
0.442456 0.204130 0.000000
0.505215 0.230799 0.000000
0.557358 0.261530 0.000000
0.602685 0.294159 0.000000
0.644776 0.326081 0.000000
0.683594 0.358366 0.000000
0.721065 0.387588 0.000000
0.757099 0.416965 0.000000
0.795870 0.442456 0.000000
0.834879 0.464318 0.000000
0.874891 0.482282 0.000000
0.915274 0.495366 0.000000
0.957135 0.503891 0.000000
1.000000 0.506521 0.000000
0.000000 0.163232 0.000000
0.095758 0.167116 0.000000
0.187460 0.176919 0.000000
0.272995 0.193827 0.000000
0.349836 0.215311 0.000000
0.416965 0.242901 0.000000
0.478159 0.272623 0.000000
0.527488 0.306847 0.000000
0.571063 0.343351 0.000000
0.612332 0.378131 0.000000
0.650820 0.413880 0.000000
0.689342 0.446870 0.000000
0.727377 0.478159 0.000000
0.769201 0.505215 0.000000
0.812082 0.528754 0.000000
0.856969 0.548456 0.000000
0.903239 0.562569 0.000000
0.951053 0.571873 0.000000
1.000000 0.574610 0.000000
0.000000 0.195294 0.000000
0.088096 0.199263 0.000000
0.172411 0.209689 0.000000
0.251638 0.227454 0.000000
0.323130 0.250175 0.000000
0.387588 0.278935 0.000000
0.446870 0.310658 0.000000
0.493480 0.346147 0.000000
0.535675 0.383571 0.000000
0.576156 0.420813 0.000000
0.614474 0.457820 0.000000
0.653853 0.493480 0.000000
0.693153 0.527488 0.000000
0.738470 0.557358 0.000000
0.785950 0.582828 0.000000
0.836087 0.604207 0.000000
0.888731 0.620007 0.000000
0.943611 0.630045 0.000000
1.000000 0.633274 0.000000
0.000000 0.230843 0.000000
0.080172 0.234860 0.000000
0.157682 0.245704 0.000000
0.230689 0.264157 0.000000
0.297111 0.287543 0.000000
0.358366 0.316406 0.000000
0.413880 0.349180 0.000000
0.457820 0.385526 0.000000
0.499179 0.422914 0.000000
0.538370 0.461004 0.000000
0.577086 0.499179 0.000000
0.616429 0.535675 0.000000
0.656649 0.571063 0.000000
0.705841 0.602685 0.000000
0.758045 0.630625 0.000000
0.813538 0.653522 0.000000
0.873291 0.670603 0.000000
0.935619 0.681511 0.000000
1.000000 0.685148 0.000000
0.000000 0.270492 0.000000
0.072261 0.274302 0.000000
0.141913 0.285073 0.000000
0.208105 0.303060 0.000000
0.270044 0.326675 0.000000
0.326081 0.355224 0.000000
0.378131 0.387668 0.000000
0.420813 0.423844 0.000000
0.461004 0.461630 0.000000
0.500000 0.500000 0.000000
0.538996 0.538370 0.000000
0.579187 0.576156 0.000000
0.621869 0.612332 0.000000
0.673919 0.644776 0.000000
0.729956 0.673325 0.000000
0.791895 0.696940 0.000000
0.858087 0.714927 0.000000
0.927738 0.725698 0.000000
1.000000 0.729508 0.000000
0.000000 0.314852 0.000000
0.064381 0.318489 0.000000
0.126709 0.329397 0.000000
0.186462 0.346478 0.000000
0.241955 0.369375 0.000000
0.294159 0.397315 0.000000
0.343351 0.428937 0.000000
0.383571 0.464325 0.000000
0.422914 0.500821 0.000000
0.461630 0.538996 0.000000
0.500821 0.577086 0.000000
0.542180 0.614474 0.000000
0.586120 0.650820 0.000000
0.641634 0.683594 0.000000
0.702889 0.712457 0.000000
0.769311 0.735843 0.000000
0.842318 0.754296 0.000000
0.919828 0.765140 0.000000
1.000000 0.769157 0.000000
0.000000 0.366726 0.000000
0.056389 0.369955 0.000000
0.111269 0.379993 0.000000
0.163913 0.395793 0.000000
0.214050 0.417172 0.000000
0.261530 0.442642 0.000000
0.306847 0.472512 0.000000
0.346147 0.506520 0.000000
0.385526 0.542180 0.000000
0.423844 0.579187 0.000000
0.464325 0.616429 0.000000
0.506520 0.653853 0.000000
0.553130 0.689342 0.000000
0.612412 0.721065 0.000000
0.676870 0.749825 0.000000
0.748362 0.772546 0.000000
0.827589 0.790311 0.000000
0.911904 0.800737 0.000000
1.000000 0.804706 0.000000
0.000000 0.425390 0.000000
0.048946 0.428127 0.000000
0.096761 0.437431 0.000000
0.143031 0.451544 0.000000
0.187918 0.471246 0.000000
0.230799 0.494785 0.000000
0.272623 0.521841 0.000000
0.310658 0.553130 0.000000
0.349180 0.586120 0.000000
0.387668 0.621869 0.000000
0.428937 0.656649 0.000000
0.472512 0.693153 0.000000
0.521841 0.727377 0.000000
0.583035 0.757099 0.000000
0.650164 0.784689 0.000000
0.727005 0.806173 0.000000
0.812540 0.823081 0.000000
0.904241 0.832884 0.000000
1.000000 0.836768 0.000000
0.000000 0.493479 0.000000
0.042865 0.496109 0.000000
0.084726 0.504634 0.000000
0.125109 0.517718 0.000000
0.165121 0.535682 0.000000
0.204130 0.557544 0.000000
0.242901 0.583035 0.000000
0.278935 0.612412 0.000000
0.316406 0.641634 0.000000
0.355224 0.673919 0.000000
0.397315 0.705841 0.000000
0.442642 0.738470 0.000000
0.494785 0.769201 0.000000
0.557544 0.795870 0.000000
0.627638 0.820306 0.000000
0.709096 0.839325 0.000000
0.799678 0.854783 0.000000
0.897631 0.863179 0.000000
1.000000 0.866919 0.000000
0.000000 0.572341 0.000000
0.036847 0.574515 0.000000
0.073123 0.582220 0.000000
0.108742 0.593506 0.000000
0.144324 0.608800 0.000000
0.179694 0.627638 0.000000
0.215311 0.650164 0.000000
0.250175 0.676870 0.000000
0.287543 0.702889 0.000000
0.326675 0.729956 0.000000
0.369375 0.758045 0.000000
0.417172 0.785950 0.000000
0.471246 0.812082 0.000000
0.535682 0.834879 0.000000
0.608800 0.855676 0.000000
0.693571 0.871518 0.000000
0.788987 0.884632 0.000000
0.891895 0.891761 0.000000
1.000000 0.895416 0.000000
0.000000 0.663911 0.000000
0.032027 0.665495 0.000000
0.064391 0.671651 0.000000
0.096321 0.680548 0.000000
0.128482 0.693571 0.000000
0.160675 0.709096 0.000000
0.193827 0.727005 0.000000
0.227454 0.748362 0.000000
0.264157 0.769311 0.000000
0.303060 0.791895 0.000000
0.346478 0.813538 0.000000
0.395793 0.836087 0.000000
0.451544 0.856969 0.000000
0.517718 0.874891 0.000000
0.593506 0.891258 0.000000
0.680548 0.903679 0.000000
0.779901 0.914534 0.000000
0.887137 0.920059 0.000000
1.000000 0.922842 0.000000
0.000000 0.768097 0.000000
0.028132 0.769313 0.000000
0.056951 0.773615 0.000000
0.085466 0.779901 0.000000
0.115368 0.788987 0.000000
0.145217 0.799678 0.000000
0.176919 0.812540 0.000000
0.209689 0.827589 0.000000
0.245704 0.842318 0.000000
0.285073 0.858087 0.000000
0.329397 0.873291 0.000000
0.379993 0.888731 0.000000
0.437431 0.903239 0.000000
0.504634 0.915274 0.000000
0.582220 0.926877 0.000000
0.671651 0.935609 0.000000
0.773615 0.943049 0.000000
0.883853 0.947344 0.000000
1.000000 0.949387 0.000000
0.000000 0.880891 0.000000
0.026232 0.881513 0.000000
0.052656 0.883853 0.000000
0.079941 0.887137 0.000000
0.108239 0.891895 0.000000
0.136821 0.897631 0.000000
0.167117 0.904241 0.000000
0.199263 0.911904 0.000000
0.234860 0.919828 0.000000
0.274302 0.927738 0.000000
0.318489 0.935619 0.000000
0.369955 0.943611 0.000000
0.428127 0.951053 0.000000
0.496109 0.957135 0.000000
0.574515 0.963153 0.000000
0.665495 0.967972 0.000000
0.769313 0.971868 0.000000
0.881513 0.973768 0.000000
1.000000 0.974763 0.000000
0.000000 1.000000 0.000000
0.025237 1.000000 0.000000
0.050613 1.000000 0.000000
0.077158 1.000000 0.000000
0.104584 1.000000 0.000000
0.133081 1.000000 0.000000
0.163232 1.000000 0.000000
0.195294 1.000000 0.000000
0.230843 1.000000 0.000000
0.270492 1.000000 0.000000
0.314852 1.000000 0.000000
0.366726 1.000000 0.000000
0.425390 1.000000 0.000000
0.493479 1.000000 0.000000
0.572341 1.000000 0.000000
0.663911 1.000000 0.000000
0.768097 1.000000 0.000000
0.880891 1.000000 0.000000
1.000000 1.000000 0.000000
0.000000 0.000000 0.055000
0.119108 0.000000 0.055000
0.231903 0.000000 0.055000
0.336089 0.000000 0.055000
0.427659 0.000000 0.055000
[...]
POINT_DATA 2527 
VECTORS pos float 
0.000000 0.000000 0.000000
0.119108 0.000000 0.000000
0.231903 0.000000 0.000000
0.336089 0.000000 0.000000
0.427659 0.000000 0.000000
0.506521 0.000000 0.000000
0.574610 0.000000 0.000000
0.633274 0.000000 0.000000
0.685148 0.000000 0.000000
0.729508 0.000000 0.000000
0.769157 0.000000 0.000000
0.804706 0.000000 0.000000
0.836768 0.000000 0.000000
0.866919 0.000000 0.000000
0.895416 0.000000 0.000000
0.922842 0.000000 0.000000
0.949387 0.000000 0.000000
0.974763 0.000000 0.000000
1.000000 0.000000 0.000000
0.000000 0.025237 0.000000
0.118486 0.026232 0.000000
0.230687 0.028132 0.000000
0.334505 0.032027 0.000000
0.425485 0.036847 0.000000
0.503891 0.042865 0.000000
0.571873 0.048946 0.000000
0.630045 0.056389 0.000000
0.681511 0.064381 0.000000
0.725698 0.072261 0.000000
0.765140 0.080172 0.000000
0.800737 0.088096 0.000000
0.832884 0.095758 0.000000
0.863179 0.102368 0.000000
0.891761 0.108104 0.000000
0.920059 0.112862 0.000000
0.947344 0.116146 0.000000
0.973768 0.118486 0.000000
1.000000 0.119108 0.000000
0.000000 0.050613 0.000000
0.116146 0.052656 0.000000
0.226385 0.056951 0.000000
0.328349 0.064391 0.000000
0.417780 0.073123 0.000000
0.495366 0.084726 0.000000
0.562569 0.096761 0.000000
0.620007 0.111269 0.000000
0.670603 0.126709 0.000000
0.714927 0.141913 0.000000
0.754296 0.157682 0.000000
0.790311 0.172411 0.000000
0.823081 0.187460 0.000000
0.854783 0.200322 0.000000
0.884632 0.211013 0.000000
0.914534 0.220099 0.000000
0.943049 0.226385 0.000000
0.971868 0.230687 0.000000
1.000000 0.231903 0.000000
0.000000 0.077158 0.000000
0.112862 0.079941 0.000000
0.220099 0.085466 0.000000
0.319452 0.096321 0.000000
0.406494 0.108742 0.000000
0.482282 0.125109 0.000000
0.548456 0.143031 0.000000
0.604207 0.163913 0.000000
0.653522 0.186462 0.000000
0.696940 0.208105 0.000000
0.735843 0.230689 0.000000
0.772546 0.251638 0.000000
0.806173 0.272995 0.000000
0.839325 0.290904 0.000000
0.871518 0.306429 0.000000
0.903679 0.319452 0.000000
0.935609 0.328349 0.000000
0.967972 0.334505 0.000000
1.000000 0.336089 0.000000
0.000000 0.104584 0.000000
0.108104 0.108239 0.000000
0.211013 0.115368 0.000000
0.306429 0.128482 0.000000
0.391200 0.144324 0.000000
0.464318 0.165121 0.000000
0.528754 0.187918 0.000000
0.582828 0.214050 0.000000
0.630625 0.241955 0.000000
0.673325 0.270044 0.000000
0.712457 0.297111 0.000000
0.749825 0.323130 0.000000
0.784689 0.349836 0.000000
0.820306 0.372362 0.000000
0.855676 0.391200 0.000000
0.891258 0.406494 0.000000
0.926877 0.417780 0.000000
0.963153 0.425485 0.000000
1.000000 0.427659 0.000000
0.000000 0.133081 0.000000
0.102368 0.136821 0.000000
0.200322 0.145217 0.000000
0.290904 0.160675 0.000000
0.372362 0.179694 0.000000
0.442456 0.204130 0.000000
0.505215 0.230799 0.000000
0.557358 0.261530 0.000000
0.602685 0.294159 0.000000
0.644776 0.326081 0.000000
0.683594 0.358366 0.000000
0.721065 0.387588 0.000000
0.757099 0.416965 0.000000
0.795870 0.442456 0.000000
0.834879 0.464318 0.000000
0.874891 0.482282 0.000000
0.915274 0.495366 0.000000
0.957135 0.503891 0.000000
1.000000 0.506521 0.000000
0.000000 0.163232 0.000000
0.095758 0.167116 0.000000
0.187460 0.176919 0.000000
0.272995 0.193827 0.000000
0.349836 0.215311 0.000000
0.416965 0.242901 0.000000
0.478159 0.272623 0.000000
0.527488 0.306847 0.000000
0.571063 0.343351 0.000000
0.612332 0.378131 0.000000
0.650820 0.413880 0.000000
0.689342 0.446870 0.000000
0.727377 0.478159 0.000000
0.769201 0.505215 0.000000
0.812082 0.528754 0.000000
0.856969 0.548456 0.000000
0.903239 0.562569 0.000000
0.951053 0.571873 0.000000
1.000000 0.574610 0.000000
0.000000 0.195294 0.000000
0.088096 0.199263 0.000000
0.172411 0.209689 0.000000
0.251638 0.227454 0.000000
0.323130 0.250175 0.000000
0.387588 0.278935 0.000000
0.446870 0.310658 0.000000
0.493480 0.346147 0.000000
0.535675 0.383571 0.000000
0.576156 0.420813 0.000000
0.614474 0.457820 0.000000
0.653853 0.493480 0.000000
0.693153 0.527488 0.000000
0.738470 0.557358 0.000000
0.785950 0.582828 0.000000
0.836087 0.604207 0.000000
0.888731 0.620007 0.000000
0.943611 0.630045 0.000000
1.000000 0.633274 0.000000
0.000000 0.230843 0.000000
0.080172 0.234860 0.000000
0.157682 0.245704 0.000000
0.230689 0.264157 0.000000
0.297111 0.287543 0.000000
0.358366 0.316406 0.000000
0.413880 0.349180 0.000000
0.457820 0.385526 0.000000
0.499179 0.422914 0.000000
0.538370 0.461004 0.000000
0.577086 0.499179 0.000000
0.616429 0.535675 0.000000
0.656649 0.571063 0.000000
0.705841 0.602685 0.000000
0.758045 0.630625 0.000000
0.813538 0.653522 0.000000
0.873291 0.670603 0.000000
0.935619 0.681511 0.000000
1.000000 0.685148 0.000000
0.000000 0.270492 0.000000
0.072261 0.274302 0.000000
0.141913 0.285073 0.000000
0.208105 0.303060 0.000000
0.270044 0.326675 0.000000
0.326081 0.355224 0.000000
0.378131 0.387668 0.000000
0.420813 0.423844 0.000000
0.461004 0.461630 0.000000
0.500000 0.500000 0.000000
0.538996 0.538370 0.000000
0.579187 0.576156 0.000000
0.621869 0.612332 0.000000
0.673919 0.644776 0.000000
0.729956 0.673325 0.000000
0.791895 0.696940 0.000000
0.858087 0.714927 0.000000
0.927738 0.725698 0.000000
1.000000 0.729508 0.000000
0.000000 0.314852 0.000000
0.064381 0.318489 0.000000
0.126709 0.329397 0.000000
0.186462 0.346478 0.000000
0.241955 0.369375 0.000000
0.294159 0.397315 0.000000
0.343351 0.428937 0.000000
0.383571 0.464325 0.000000
0.422914 0.500821 0.000000
0.461630 0.538996 0.000000
0.500821 0.577086 0.000000
0.542180 0.614474 0.000000
0.586120 0.650820 0.000000
0.641634 0.683594 0.000000
0.702889 0.712457 0.000000
0.769311 0.735843 0.000000
0.842318 0.754296 0.000000
0.919828 0.765140 0.000000
1.000000 0.769157 0.000000
0.000000 0.366726 0.000000
0.056389 0.369955 0.000000
0.111269 0.379993 0.000000
0.163913 0.395793 0.000000
0.214050 0.417172 0.000000
0.261530 0.442642 0.000000
0.306847 0.472512 0.000000
0.346147 0.506520 0.000000
0.385526 0.542180 0.000000
0.423844 0.579187 0.000000
0.464325 0.616429 0.000000
0.506520 0.653853 0.000000
0.553130 0.689342 0.000000
0.612412 0.721065 0.000000
0.676870 0.749825 0.000000
0.748362 0.772546 0.000000
0.827589 0.790311 0.000000
0.911904 0.800737 0.000000
1.000000 0.804706 0.000000
0.000000 0.425390 0.000000
0.048946 0.428127 0.000000
0.096761 0.437431 0.000000
0.143031 0.451544 0.000000
0.187918 0.471246 0.000000
0.230799 0.494785 0.000000
0.272623 0.521841 0.000000
0.310658 0.553130 0.000000
0.349180 0.586120 0.000000
0.387668 0.621869 0.000000
0.428937 0.656649 0.000000
0.472512 0.693153 0.000000
0.521841 0.727377 0.000000
0.583035 0.757099 0.000000
0.650164 0.784689 0.000000
0.727005 0.806173 0.000000
0.812540 0.823081 0.000000
0.904241 0.832884 0.000000
1.000000 0.836768 0.000000
0.000000 0.493479 0.000000
0.042865 0.496109 0.000000
0.084726 0.504634 0.000000
0.125109 0.517718 0.000000
0.165121 0.535682 0.000000
0.204130 0.557544 0.000000
0.242901 0.583035 0.000000
0.278935 0.612412 0.000000
0.316406 0.641634 0.000000
0.355224 0.673919 0.000000
0.397315 0.705841 0.000000
0.442642 0.738470 0.000000
0.494785 0.769201 0.000000
0.557544 0.795870 0.000000
0.627638 0.820306 0.000000
0.709096 0.839325 0.000000
0.799678 0.854783 0.000000
0.897631 0.863179 0.000000
1.000000 0.866919 0.000000
0.000000 0.572341 0.000000
0.036847 0.574515 0.000000
0.073123 0.582220 0.000000
0.108742 0.593506 0.000000
0.144324 0.608800 0.000000
0.179694 0.627638 0.000000
0.215311 0.650164 0.000000
0.250175 0.676870 0.000000
0.287543 0.702889 0.000000
0.326675 0.729956 0.000000
0.369375 0.758045 0.000000
0.417172 0.785950 0.000000
0.471246 0.812082 0.000000
0.535682 0.834879 0.000000
0.608800 0.855676 0.000000
0.693571 0.871518 0.000000
0.788987 0.884632 0.000000
0.891895 0.891761 0.000000
1.000000 0.895416 0.000000
0.000000 0.663911 0.000000
0.032027 0.665495 0.000000
0.064391 0.671651 0.000000
0.096321 0.680548 0.000000
0.128482 0.693571 0.000000
0.160675 0.709096 0.000000
0.193827 0.727005 0.000000
0.227454 0.748362 0.000000
0.264157 0.769311 0.000000
0.303060 0.791895 0.000000
0.346478 0.813538 0.000000
0.395793 0.836087 0.000000
0.451544 0.856969 0.000000
0.517718 0.874891 0.000000
0.593506 0.891258 0.000000
0.680548 0.903679 0.000000
0.779901 0.914534 0.000000
0.887137 0.920059 0.000000
1.000000 0.922842 0.000000
0.000000 0.768097 0.000000
0.028132 0.769313 0.000000
0.056951 0.773615 0.000000
0.085466 0.779901 0.000000
0.115368 0.788987 0.000000
0.145217 0.799678 0.000000
0.176919 0.812540 0.000000
0.209689 0.827589 0.000000
0.245704 0.842318 0.000000
0.285073 0.858087 0.000000
0.329397 0.873291 0.000000
0.379993 0.888731 0.000000
0.437431 0.903239 0.000000
0.504634 0.915274 0.000000
0.582220 0.926877 0.000000
0.671651 0.935609 0.000000
0.773615 0.943049 0.000000
0.883853 0.947344 0.000000
1.000000 0.949387 0.000000
0.000000 0.880891 0.000000
0.026232 0.881513 0.000000
0.052656 0.883853 0.000000
0.079941 0.887137 0.000000
0.108239 0.891895 0.000000
0.136821 0.897631 0.000000
0.167117 0.904241 0.000000
0.199263 0.911904 0.000000
0.234860 0.919828 0.000000
0.274302 0.927738 0.000000
0.318489 0.935619 0.000000
0.369955 0.943611 0.000000
0.428127 0.951053 0.000000
0.496109 0.957135 0.000000
0.574515 0.963153 0.000000
0.665495 0.967972 0.000000
0.769313 0.971868 0.000000
0.881513 0.973768 0.000000
1.000000 0.974763 0.000000
0.000000 1.000000 0.000000
0.025237 1.000000 0.000000
0.050613 1.000000 0.000000
0.077158 1.000000 0.000000
0.104584 1.000000 0.000000
0.133081 1.000000 0.000000
0.163232 1.000000 0.000000
0.195294 1.000000 0.000000
0.230843 1.000000 0.000000
0.270492 1.000000 0.000000
0.314852 1.000000 0.000000
0.366726 1.000000 0.000000
0.425390 1.000000 0.000000
0.493479 1.000000 0.000000
0.572341 1.000000 0.000000
0.663911 1.000000 0.000000
0.768097 1.000000 0.000000
0.880891 1.000000 0.000000
1.000000 1.000000 0.000000
0.000000 0.000000 0.055000
0.119108 0.000000 0.055000
0.231903 0.000000 0.055000
0.336089 0.000000 0.055000
0.427659 0.000000 0.055000
0.506521 0.000000 0.055000
0.574610 0.000000 0.055000
0.633274 0.000000 0.055000
0.685148 0.000000 0.055000
0.729508 0.000000 0.055000
0.769157 0.000000 0.055000
0.804706 0.000000 0.055000
0.836768 0.000000 0.055000
0.866919 0.000000 0.055000
0.895416 0.000000 0.055000
0.922842 0.000000 0.055000
0.949387 0.000000 0.055000
0.974763 0.000000 0.055000
1.000000 0.000000 0.055000
0.000000 0.025237 0.055000
0.118486 0.026232 0.055000
0.230687 0.028132 0.055000
0.334505 0.032027 0.055000
0.425485 0.036847 0.055000
0.503891 0.042865 0.055000
0.571873 0.048946 0.055000
0.630045 0.056389 0.055000
0.681511 0.064381 0.055000
0.725698 0.072261 0.055000
0.765140 0.080172 0.055000
0.800737 0.088096 0.055000
0.832884 0.095758 0.055000
0.863179 0.102368 0.055000
0.891761 0.108104 0.055000
0.920059 0.112862 0.055000
0.947344 0.116146 0.055000
0.973768 0.118486 0.055000
1.000000 0.119108 0.055000
0.000000 0.050613 0.055000
0.116146 0.052656 0.055000
0.226385 0.056951 0.055000
0.328349 0.064391 0.055000
0.417780 0.073123 0.055000
0.495366 0.084726 0.055000
0.562569 0.096761 0.055000
0.620007 0.111269 0.055000
0.670603 0.126709 0.055000
0.714927 0.141913 0.055000
0.754296 0.157682 0.055000
0.790311 0.172411 0.055000
0.823081 0.187460 0.055000
0.854783 0.200322 0.055000
0.884632 0.211013 0.055000
0.914534 0.220099 0.055000
0.943049 0.226385 0.055000
0.971868 0.230687 0.055000
1.000000 0.231903 0.055000
0.000000 0.077158 0.055000
0.112862 0.079941 0.055000
0.220099 0.085466 0.055000
0.319452 0.096321 0.055000
0.406494 0.108742 0.055000
0.482282 0.125109 0.055000
0.548456 0.143031 0.055000
0.604207 0.163913 0.055000
0.653522 0.186462 0.055000
0.696940 0.208105 0.055000
0.735843 0.230689 0.055000
0.772546 0.251638 0.055000
0.806173 0.272995 0.055000
0.839325 0.290904 0.055000
0.871518 0.306429 0.055000
0.903679 0.319452 0.055000
0.935609 0.328349 0.055000
0.967972 0.334505 0.055000
1.000000 0.336089 0.055000
0.000000 0.104584 0.055000
0.108104 0.108239 0.055000
0.211013 0.115368 0.055000
0.306429 0.128482 0.055000
0.391200 0.144324 0.055000
0.464318 0.165121 0.055000
0.528754 0.187918 0.055000
0.582828 0.214050 0.055000
0.630625 0.241955 0.055000
0.673325 0.270044 0.055000
0.712457 0.297111 0.055000
0.749825 0.323130 0.055000
0.784689 0.349836 0.055000
0.820306 0.372362 0.055000
0.855676 0.391200 0.055000
0.891258 0.406494 0.055000
0.926877 0.417780 0.055000
0.963153 0.425485 0.055000
1.000000 0.427659 0.055000
0.000000 0.133081 0.055000
0.102368 0.136821 0.055000
0.200322 0.145217 0.055000
0.290904 0.160675 0.055000
0.372362 0.179694 0.055000
0.442456 0.204130 0.055000
0.505215 0.230799 0.055000
0.557358 0.261530 0.055000
0.602685 0.294159 0.055000
0.644776 0.326081 0.055000
0.683594 0.358366 0.055000
0.721065 0.387588 0.055000
0.757099 0.416965 0.055000
0.795870 0.442456 0.055000
0.834879 0.464318 0.055000
0.874891 0.482282 0.055000
0.915274 0.495366 0.055000
0.957135 0.503891 0.055000
1.000000 0.506521 0.055000
0.000000 0.163232 0.055000
0.095758 0.167116 0.055000
0.187460 0.176919 0.055000
0.272995 0.193827 0.055000
0.349836 0.215311 0.055000
0.416965 0.242901 0.055000
0.478159 0.272623 0.055000
0.527488 0.306847 0.055000
0.571063 0.343351 0.055000
0.612332 0.378131 0.055000
0.650820 0.413880 0.055000
0.689342 0.446870 0.055000
0.727377 0.478159 0.055000
0.769201 0.505215 0.055000
0.812082 0.528754 0.055000
0.856969 0.548456 0.055000
0.903239 0.562569 0.055000
0.951053 0.571873 0.055000
1.000000 0.574610 0.055000
0.000000 0.195294 0.055000
0.088096 0.199263 0.055000
0.172411 0.209689 0.055000
0.251638 0.227454 0.055000
0.323130 0.250175 0.055000
0.387588 0.278935 0.055000
0.446870 0.310658 0.055000
0.493480 0.346147 0.055000
0.535675 0.383571 0.055000
0.576156 0.420813 0.055000
0.614474 0.457820 0.055000
0.653853 0.493480 0.055000
0.693153 0.527488 0.055000
0.738470 0.557358 0.055000
0.785950 0.582828 0.055000
0.836087 0.604207 0.055000
0.888731 0.620007 0.055000
0.943611 0.630045 0.055000
1.000000 0.633274 0.055000
0.000000 0.230843 0.055000
0.080172 0.234860 0.055000
0.157682 0.245704 0.055000
0.230689 0.264157 0.055000
0.297111 0.287543 0.055000
0.358366 0.316406 0.055000
0.413880 0.349180 0.055000
0.457820 0.385526 0.055000
0.499179 0.422914 0.055000
0.538370 0.461004 0.055000
0.577086 0.499179 0.055000
0.616429 0.535675 0.055000
0.656649 0.571063 0.055000
0.705841 0.602685 0.055000
0.758045 0.630625 0.055000
0.813538 0.653522 0.055000
0.873291 0.670603 0.055000
0.935619 0.681511 0.055000
1.000000 0.685148 0.055000
0.000000 0.270492 0.055000
0.072261 0.274302 0.055000
0.141913 0.285073 0.055000
0.208105 0.303060 0.055000
0.270044 0.326675 0.055000
0.326081 0.355224 0.055000
0.378131 0.387668 0.055000
0.420813 0.423844 0.055000
0.461004 0.461630 0.055000
0.500000 0.500000 0.055000
0.538996 0.538370 0.055000
0.579187 0.576156 0.055000
0.621869 0.612332 0.055000
0.673919 0.644776 0.055000
0.729956 0.673325 0.055000
0.791895 0.696940 0.055000
0.858087 0.714927 0.055000
0.927738 0.725698 0.055000
1.000000 0.729508 0.055000
0.000000 0.314852 0.055000
0.064381 0.318489 0.055000
0.126709 0.329397 0.055000
0.186462 0.346478 0.055000
0.241955 0.369375 0.055000
0.294159 0.397315 0.055000
0.343351 0.428937 0.055000
0.383571 0.464325 0.055000
0.422914 0.500821 0.055000
0.461630 0.538996 0.055000
0.500821 0.577086 0.055000
0.542180 0.614474 0.055000
0.586120 0.650820 0.055000
0.641634 0.683594 0.055000
0.702889 0.712457 0.055000
0.769311 0.735843 0.055000
0.842318 0.754296 0.055000
0.919828 0.765140 0.055000
1.000000 0.769157 0.055000
0.000000 0.366726 0.055000
0.056389 0.369955 0.055000
0.111269 0.379993 0.055000
0.163913 0.395793 0.055000
0.214050 0.417172 0.055000
0.261530 0.442642 0.055000
0.306847 0.472512 0.055000
0.346147 0.506520 0.055000
0.385526 0.542180 0.055000
0.423844 0.579187 0.055000
0.464325 0.616429 0.055000
0.506520 0.653853 0.055000
0.553130 0.689342 0.055000
0.612412 0.721065 0.055000
0.676870 0.749825 0.055000
0.748362 0.772546 0.055000
0.827589 0.790311 0.055000
0.911904 0.800737 0.055000
1.000000 0.804706 0.055000
0.000000 0.425390 0.055000
0.048946 0.428127 0.055000
0.096761 0.437431 0.055000
0.143031 0.451544 0.055000
0.187918 0.471246 0.055000
0.230799 0.494785 0.055000
0.272623 0.521841 0.055000
0.310658 0.553130 0.055000
0.349180 0.586120 0.055000
0.387668 0.621869 0.055000
0.428937 0.656649 0.055000
0.472512 0.693153 0.055000
0.521841 0.727377 0.055000
0.583035 0.757099 0.055000
0.650164 0.784689 0.055000
0.727005 0.806173 0.055000
0.812540 0.823081 0.055000
0.904241 0.832884 0.055000
1.000000 0.836768 0.055000
0.000000 0.493479 0.055000
0.042865 0.496109 0.055000
0.084726 0.504634 0.055000
0.125109 0.517718 0.055000
0.165121 0.535682 0.055000
0.204130 0.557544 0.055000
0.242901 0.583035 0.055000
0.278935 0.612412 0.055000
0.316406 0.641634 0.055000
0.355224 0.673919 0.055000
0.397315 0.705841 0.055000
0.442642 0.738470 0.055000
0.494785 0.769201 0.055000
0.557544 0.795870 0.055000
0.627638 0.820306 0.055000
0.709096 0.839325 0.055000
0.799678 0.854783 0.055000
0.897631 0.863179 0.055000
1.000000 0.866919 0.055000
0.000000 0.572341 0.055000
0.036847 0.574515 0.055000
0.073123 0.582220 0.055000
0.108742 0.593506 0.055000
0.144324 0.608800 0.055000
0.179694 0.627638 0.055000
0.215311 0.650164 0.055000
0.250175 0.676870 0.055000
0.287543 0.702889 0.055000
0.326675 0.729956 0.055000
0.369375 0.758045 0.055000
0.417172 0.785950 0.055000
0.471246 0.812082 0.055000
0.535682 0.834879 0.055000
0.608800 0.855676 0.055000
0.693571 0.871518 0.055000
0.788987 0.884632 0.055000
0.891895 0.891761 0.055000
1.000000 0.895416 0.055000
0.000000 0.663911 0.055000
0.032027 0.665495 0.055000
0.064391 0.671651 0.055000
0.096321 0.680548 0.055000
0.128482 0.693571 0.055000
0.160675 0.709096 0.055000
0.193827 0.727005 0.055000
0.227454 0.748362 0.055000
0.264157 0.769311 0.055000
0.303060 0.791895 0.055000
0.346478 0.813538 0.055000
0.395793 0.836087 0.055000
0.451544 0.856969 0.055000
0.517718 0.874891 0.055000
0.593506 0.891258 0.055000
0.680548 0.903679 0.055000
0.779901 0.914534 0.055000
0.887137 0.920059 0.055000
1.000000 0.922842 0.055000
0.000000 0.768097 0.055000
0.028132 0.769313 0.055000
0.056951 0.773615 0.055000
0.085466 0.779901 0.055000
0.115368 0.788987 0.055000
0.145217 0.799678 0.055000
0.176919 0.812540 0.055000
0.209689 0.827589 0.055000
0.245704 0.842318 0.055000
0.285073 0.858087 0.055000
0.329397 0.873291 0.055000
0.379993 0.888731 0.055000
0.437431 0.903239 0.055000
0.504634 0.915274 0.055000
0.582220 0.926877 0.055000
0.671651 0.935609 0.055000
0.773615 0.943049 0.055000
0.883853 0.947344 0.055000
1.000000 0.949387 0.055000
0.000000 0.880891 0.055000
0.026232 0.881513 0.055000
0.052656 0.883853 0.055000
0.079941 0.887137 0.055000
0.108239 0.891895 0.055000
0.136821 0.897631 0.055000
0.167117 0.904241 0.055000
0.199263 0.911904 0.055000
0.234860 0.919828 0.055000
0.274302 0.927738 0.055000
0.318489 0.935619 0.055000
0.369955 0.943611 0.055000
0.428127 0.951053 0.055000
0.496109 0.957135 0.055000
0.574515 0.963153 0.055000
0.665495 0.967972 0.055000
0.769313 0.971868 0.055000
0.881513 0.973768 0.055000
1.000000 0.974763 0.055000
0.000000 1.000000 0.055000
0.025237 1.000000 0.055000
0.050613 1.000000 0.055000
0.077158 1.000000 0.055000
0.104584 1.000000 0.055000
0.133081 1.000000 0.055000
0.163232 1.000000 0.055000
0.195294 1.000000 0.055000
0.230843 1.000000 0.055000
0.270492 1.000000 0.055000
0.314852 1.000000 0.055000
0.366726 1.000000 0.055000
0.425390 1.000000 0.055000
0.493479 1.000000 0.055000
0.572341 1.000000 0.055000
0.663911 1.000000 0.055000
0.768097 1.000000 0.055000
0.880891 1.000000 0.055000
1.000000 1.000000 0.055000
0.000000 0.000000 0.110000
0.119108 0.000000 0.110000
0.231903 0.000000 0.110000
0.336089 0.000000 0.110000
0.427659 0.000000 0.110000
0.506521 0.000000 0.110000
0.574610 0.000000 0.110000
0.633274 0.000000 0.110000
0.685148 0.000000 0.110000
0.729508 0.000000 0.110000
0.769157 0.000000 0.110000
0.804706 0.000000 0.110000
0.836768 0.000000 0.110000
0.866919 0.000000 0.110000
0.895416 0.000000 0.110000
0.922842 0.000000 0.110000
0.949387 0.000000 0.110000