# vtk DataFile Version 2.0
Mesh for Fierro
ASCII 
DATASET UNSTRUCTURED_GRID

POINTS 2527 float
0.000000 0.000000 0.000000
0.066973 0.000000 0.000000
0.133418 0.000000 0.000000
0.198785 0.000000 0.000000
0.263192 0.000000 0.000000
0.326439 0.000000 0.000000
0.388867 0.000000 0.000000
0.446788 0.000000 0.000000
0.503828 0.000000 0.000000
0.559671 0.000000 0.000000
0.613674 0.000000 0.000000
0.665287 0.000000 0.000000
0.714961 0.000000 0.000000
0.765275 0.000000 0.000000
0.814034 0.000000 0.000000
0.861415 0.000000 0.000000
0.907761 0.000000 0.000000
0.954054 0.000000 0.000000
1.000000 0.000000 0.000000
0.000000 0.045946 0.000000
0.066811 0.046114 0.000000
0.133095 0.046580 0.000000
0.198342 0.047358 0.000000
0.262613 0.048395 0.000000
0.325785 0.049694 0.000000
0.387964 0.051201 0.000000
0.445965 0.052873 0.000000
0.502988 0.054635 0.000000
0.558689 0.056450 0.000000
0.612862 0.058281 0.000000
0.664470 0.060028 0.000000
0.714074 0.061708 0.000000
0.764611 0.063207 0.000000
0.813437 0.064514 0.000000
0.860963 0.065561 0.000000
0.907429 0.066337 0.000000
0.953886 0.066811 0.000000
1.000000 0.066973 0.000000
0.000000 0.092239 0.000000
0.066337 0.092571 0.000000
0.132180 0.093495 0.000000
0.196971 0.095037 0.000000
0.260862 0.097093 0.000000
0.323669 0.099677 0.000000
0.385790 0.102619 0.000000
0.443409 0.105855 0.000000
0.500270 0.109318 0.000000
0.556056 0.112871 0.000000
0.610133 0.116430 0.000000
0.661925 0.119901 0.000000
0.711788 0.123150 0.000000
0.762536 0.126048 0.000000
0.811686 0.128613 0.000000
0.859609 0.130661 0.000000
0.906505 0.132180 0.000000
0.953420 0.133095 0.000000
1.000000 0.133418 0.000000
0.000000 0.138585 0.000000
0.065561 0.139037 0.000000
0.130661 0.140391 0.000000
0.194760 0.142599 0.000000
0.258017 0.145594 0.000000
0.320315 0.149290 0.000000
0.381943 0.153592 0.000000
0.439287 0.158411 0.000000
0.495962 0.163424 0.000000
0.551629 0.168651 0.000000
0.605852 0.173903 0.000000
0.657828 0.178897 0.000000
0.707853 0.183722 0.000000
0.759197 0.188018 0.000000
0.808821 0.191739 0.000000
0.857401 0.194760 0.000000
0.904963 0.196971 0.000000
0.952642 0.198342 0.000000
1.000000 0.198785 0.000000
0.000000 0.185966 0.000000
0.064514 0.186563 0.000000
0.128613 0.188314 0.000000
0.191739 0.191179 0.000000
0.254153 0.195036 0.000000
0.315704 0.199837 0.000000
0.376897 0.205392 0.000000
0.433638 0.211486 0.000000
0.490073 0.217942 0.000000
0.545654 0.224647 0.000000
0.599930 0.231319 0.000000
0.652213 0.237756 0.000000
0.702686 0.243902 0.000000
0.754626 0.249374 0.000000
0.804964 0.254153 0.000000
0.854406 0.258017 0.000000
0.902907 0.260862 0.000000
0.951604 0.262613 0.000000
1.000000 0.263192 0.000000
0.000000 0.234725 0.000000
0.063207 0.235389 0.000000
0.126048 0.237464 0.000000
0.188018 0.240803 0.000000
0.249374 0.245374 0.000000
0.310026 0.250996 0.000000
0.370353 0.257632 0.000000
0.426726 0.264859 0.000000
0.482756 0.272544 0.000000
0.538223 0.280525 0.000000
0.592704 0.288513 0.000000
0.645327 0.296099 0.000000
0.696072 0.303447 0.000000
0.749004 0.310026 0.000000
0.800163 0.315704 0.000000
0.850710 0.320315 0.000000
0.900323 0.323669 0.000000
0.950305 0.325785 0.000000
1.000000 0.326439 0.000000
0.000000 0.285039 0.000000
0.061708 0.285926 0.000000
0.123150 0.288212 0.000000
0.183722 0.292147 0.000000
0.243902 0.297314 0.000000
0.303447 0.303928 0.000000
0.363117 0.311314 0.000000
0.418707 0.319472 0.000000
0.474301 0.328240 0.000000
0.529683 0.337167 0.000000
0.584208 0.346217 0.000000
0.637314 0.355144 0.000000
0.688686 0.363117 0.000000
0.742368 0.370353 0.000000
0.794608 0.376897 0.000000
0.846408 0.381943 0.000000
0.897381 0.385790 0.000000
0.948799 0.387964 0.000000
1.000000 0.388867 0.000000
0.000000 0.334713 0.000000
0.060028 0.335530 0.000000
0.119901 0.338075 0.000000
0.178897 0.342172 0.000000
0.237756 0.347787 0.000000
0.296099 0.354673 0.000000
0.355144 0.362686 0.000000
0.409822 0.371543 0.000000
0.465098 0.380919 0.000000
0.520392 0.390703 0.000000
0.574925 0.400437 0.000000
0.628457 0.409822 0.000000
0.680528 0.418707 0.000000
0.735141 0.426726 0.000000
0.788514 0.433638 0.000000
0.841589 0.439287 0.000000
0.894145 0.443409 0.000000
0.947127 0.445965 0.000000
1.000000 0.446788 0.000000
0.000000 0.386326 0.000000
0.058281 0.387138 0.000000
0.116430 0.389867 0.000000
0.173903 0.394148 0.000000
0.231319 0.400070 0.000000
0.288513 0.407296 0.000000
0.346217 0.415792 0.000000
0.400437 0.425075 0.000000
0.455268 0.434806 0.000000
0.510339 0.445079 0.000000
0.565194 0.455268 0.000000
0.619081 0.465098 0.000000
0.671760 0.474301 0.000000
0.727456 0.482756 0.000000
0.782058 0.490073 0.000000
0.836576 0.495962 0.000000
0.890682 0.500270 0.000000
0.945364 0.502988 0.000000
1.000000 0.503828 0.000000
0.000000 0.440329 0.000000
0.056450 0.441311 0.000000
0.112871 0.443944 0.000000
0.168651 0.448371 0.000000
0.224647 0.454346 0.000000
0.280525 0.461777 0.000000
0.337167 0.470317 0.000000
0.390703 0.479608 0.000000
0.445079 0.489661 0.000000
0.500000 0.500000 0.000000
0.554921 0.510339 0.000000
0.609297 0.520392 0.000000
0.662833 0.529683 0.000000
0.719475 0.538223 0.000000
0.775353 0.545654 0.000000
0.831349 0.551629 0.000000
0.887129 0.556056 0.000000
0.943550 0.558689 0.000000
1.000000 0.559671 0.000000
0.000000 0.496172 0.000000
0.054635 0.497012 0.000000
0.109318 0.499730 0.000000
0.163424 0.504038 0.000000
0.217942 0.509927 0.000000
0.272544 0.517244 0.000000
0.328240 0.525699 0.000000
0.380919 0.534902 0.000000
0.434806 0.544732 0.000000
0.489661 0.554921 0.000000
0.544732 0.565194 0.000000
0.599563 0.574925 0.000000
0.653783 0.584208 0.000000
0.711487 0.592704 0.000000
0.768681 0.599930 0.000000
0.826097 0.605852 0.000000
0.883570 0.610133 0.000000
0.941719 0.612862 0.000000
1.000000 0.613674 0.000000
0.000000 0.553212 0.000000
0.052873 0.554035 0.000000
0.105855 0.556591 0.000000
0.158411 0.560713 0.000000
0.211486 0.566362 0.000000
0.264859 0.573274 0.000000
0.319472 0.581293 0.000000
0.371543 0.590178 0.000000
0.425075 0.599563 0.000000
0.479608 0.609297 0.000000
0.534902 0.619081 0.000000
0.590178 0.628457 0.000000
0.644856 0.637314 0.000000
0.703901 0.645327 0.000000
0.762244 0.652213 0.000000
0.821103 0.657828 0.000000
0.880099 0.661925 0.000000
0.939972 0.664470 0.000000
1.000000 0.665287 0.000000
0.000000 0.611133 0.000000
0.051201 0.612036 0.000000
0.102619 0.614210 0.000000
0.153592 0.618057 0.000000
0.205392 0.623103 0.000000
0.257632 0.629647 0.000000
0.311314 0.636883 0.000000
0.362686 0.644856 0.000000
0.415792 0.653783 0.000000
0.470317 0.662833 0.000000
0.525699 0.671760 0.000000
0.581293 0.680528 0.000000
0.636883 0.688686 0.000000
0.696553 0.696072 0.000000
0.756098 0.702686 0.000000
0.816278 0.707853 0.000000
0.876850 0.711788 0.000000
0.938291 0.714074 0.000000
1.000000 0.714961 0.000000
0.000000 0.673561 0.000000
0.049694 0.674215 0.000000
0.099677 0.676331 0.000000
0.149290 0.679685 0.000000
0.199837 0.684296 0.000000
0.250996 0.689974 0.000000
0.303928 0.696553 0.000000
0.354673 0.703901 0.000000
0.407296 0.711487 0.000000
0.461777 0.719475 0.000000
0.517244 0.727456 0.000000
0.573274 0.735141 0.000000
0.629647 0.742368 0.000000
0.689974 0.749004 0.000000
0.750626 0.754626 0.000000
0.811982 0.759197 0.000000
0.873952 0.762536 0.000000
0.936793 0.764611 0.000000
1.000000 0.765275 0.000000
0.000000 0.736808 0.000000
0.048395 0.737387 0.000000
0.097093 0.739138 0.000000
0.145594 0.741983 0.000000
0.195036 0.745847 0.000000
0.245374 0.750626 0.000000
0.297314 0.756098 0.000000
0.347787 0.762244 0.000000
0.400070 0.768681 0.000000
0.454346 0.775353 0.000000
0.509927 0.782058 0.000000
0.566362 0.788514 0.000000
0.623103 0.794608 0.000000
0.684296 0.800163 0.000000
0.745847 0.804964 0.000000
0.808261 0.808821 0.000000
0.871387 0.811686 0.000000
0.935486 0.813437 0.000000
1.000000 0.814034 0.000000
0.000000 0.801215 0.000000
0.047358 0.801658 0.000000
0.095037 0.803029 0.000000
0.142599 0.805240 0.000000
0.191179 0.808261 0.000000
0.240803 0.811982 0.000000
0.292147 0.816278 0.000000
0.342172 0.821103 0.000000
0.394148 0.826097 0.000000
0.448371 0.831349 0.000000
0.504038 0.836576 0.000000
0.560713 0.841589 0.000000
0.618057 0.846408 0.000000
0.679685 0.850710 0.000000
0.741983 0.854406 0.000000
0.805240 0.857401 0.000000
0.869339 0.859609 0.000000
0.934439 0.860963 0.000000
1.000000 0.861415 0.000000
0.000000 0.866582 0.000000
0.046580 0.866905 0.000000
0.093495 0.867820 0.000000
0.140391 0.869339 0.000000
0.188314 0.871387 0.000000
0.237464 0.873952 0.000000
0.288212 0.876850 0.000000
0.338075 0.880099 0.000000
0.389867 0.883570 0.000000
0.443944 0.887129 0.000000
0.499730 0.890682 0.000000
0.556591 0.894145 0.000000
0.614210 0.897381 0.000000
0.676331 0.900323 0.000000
0.739138 0.902907 0.000000
0.803029 0.904963 0.000000
0.867820 0.906505 0.000000
0.933662 0.907429 0.000000
1.000000 0.907761 0.000000
0.000000 0.933027 0.000000
0.046114 0.933189 0.000000
0.092571 0.933662 0.000000
0.139037 0.934439 0.000000
0.186563 0.935486 0.000000
0.235389 0.936793 0.000000
0.285926 0.938291 0.000000
0.335530 0.939972 0.000000
0.387138 0.941719 0.000000
0.441311 0.943550 0.000000
0.497012 0.945364 0.000000
0.554035 0.947127 0.000000
0.612036 0.948799 0.000000
0.674215 0.950305 0.000000
0.737387 0.951604 0.000000
0.801658 0.952642 0.000000
0.866905 0.953420 0.000000
0.933189 0.953886 0.000000
1.000000 0.954054 0.000000
0.000000 1.000000 0.000000
0.045946 1.000000 0.000000
0.092239 1.000000 0.000000
0.138585 1.000000 0.000000
0.185966 1.000000 0.000000
0.234725 1.000000 0.000000
0.285039 1.000000 0.000000
0.334713 1.000000 0.000000
0.386326 1.000000 0.000000
0.440329 1.000000 0.000000
0.496172 1.000000 0.000000
0.553212 1.000000 0.000000
0.611133 1.000000 0.000000
0.673561 1.000000 0.000000
0.736808 1.000000 0.000000
0.801215 1.000000 0.000000
0.866582 1.000000 0.000000
0.933027 1.000000 0.000000
1.000000 1.000000 0.000000
0.000000 0.000000 0.055000
0.066973 0.000000 0.055000
0.133418 0.000000 0.055000
0.198785 0.000000 0.055000
0.263192 0.000000 0.055000
[...]
POINT_DATA 2527 
VECTORS pos float 
0.000000 0.000000 0.000000
0.066973 0.000000 0.000000
0.133418 0.000000 0.000000
0.198785 0.000000 0.000000
0.263192 0.000000 0.000000
0.326439 0.000000 0.000000
0.388867 0.000000 0.000000
0.446788 0.000000 0.000000
0.503828 0.000000 0.000000
0.559671 0.000000 0.000000
0.613674 0.000000 0.000000
0.665287 0.000000 0.000000
0.714961 0.000000 0.000000
0.765275 0.000000 0.000000
0.814034 0.000000 0.000000
0.861415 0.000000 0.000000
0.907761 0.000000 0.000000
0.954054 0.000000 0.000000
1.000000 0.000000 0.000000
0.000000 0.045946 0.000000
0.066811 0.046114 0.000000
0.133095 0.046580 0.000000
0.198342 0.047358 0.000000
0.262613 0.048395 0.000000
0.325785 0.049694 0.000000
0.387964 0.051201 0.000000
0.445965 0.052873 0.000000
0.502988 0.054635 0.000000
0.558689 0.056450 0.000000
0.612862 0.058281 0.000000
0.664470 0.060028 0.000000
0.714074 0.061708 0.000000
0.764611 0.063207 0.000000
0.813437 0.064514 0.000000
0.860963 0.065561 0.000000
0.907429 0.066337 0.000000
0.953886 0.066811 0.000000
1.000000 0.066973 0.000000
0.000000 0.092239 0.000000
0.066337 0.092571 0.000000
0.132180 0.093495 0.000000
0.196971 0.095037 0.000000
0.260862 0.097093 0.000000
0.323669 0.099677 0.000000
0.385790 0.102619 0.000000
0.443409 0.105855 0.000000
0.500270 0.109318 0.000000
0.556056 0.112871 0.000000
0.610133 0.116430 0.000000
0.661925 0.119901 0.000000
0.711788 0.123150 0.000000
0.762536 0.126048 0.000000
0.811686 0.128613 0.000000
0.859609 0.130661 0.000000
0.906505 0.132180 0.000000
0.953420 0.133095 0.000000
1.000000 0.133418 0.000000
0.000000 0.138585 0.000000
0.065561 0.139037 0.000000
0.130661 0.140391 0.000000
0.194760 0.142599 0.000000
0.258017 0.145594 0.000000
0.320315 0.149290 0.000000
0.381943 0.153592 0.000000
0.439287 0.158411 0.000000
0.495962 0.163424 0.000000
0.551629 0.168651 0.000000
0.605852 0.173903 0.000000
0.657828 0.178897 0.000000
0.707853 0.183722 0.000000
0.759197 0.188018 0.000000
0.808821 0.191739 0.000000
0.857401 0.194760 0.000000
0.904963 0.196971 0.000000
0.952642 0.198342 0.000000
1.000000 0.198785 0.000000
0.000000 0.185966 0.000000
0.064514 0.186563 0.000000
0.128613 0.188314 0.000000
0.191739 0.191179 0.000000
0.254153 0.195036 0.000000
0.315704 0.199837 0.000000
0.376897 0.205392 0.000000
0.433638 0.211486 0.000000
0.490073 0.217942 0.000000
0.545654 0.224647 0.000000
0.599930 0.231319 0.000000
0.652213 0.237756 0.000000
0.702686 0.243902 0.000000
0.754626 0.249374 0.000000
0.804964 0.254153 0.000000
0.854406 0.258017 0.000000
0.902907 0.260862 0.000000
0.951604 0.262613 0.000000
1.000000 0.263192 0.000000
0.000000 0.234725 0.000000
0.063207 0.235389 0.000000
0.126048 0.237464 0.000000
0.188018 0.240803 0.000000
0.249374 0.245374 0.000000
0.310026 0.250996 0.000000
0.370353 0.257632 0.000000
0.426726 0.264859 0.000000
0.482756 0.272544 0.000000
0.538223 0.280525 0.000000
0.592704 0.288513 0.000000
0.645327 0.296099 0.000000
0.696072 0.303447 0.000000
0.749004 0.310026 0.000000
0.800163 0.315704 0.000000
0.850710 0.320315 0.000000
0.900323 0.323669 0.000000
0.950305 0.325785 0.000000
1.000000 0.326439 0.000000
0.000000 0.285039 0.000000
0.061708 0.285926 0.000000
0.123150 0.288212 0.000000
0.183722 0.292147 0.000000
0.243902 0.297314 0.000000
0.303447 0.303928 0.000000
0.363117 0.311314 0.000000
0.418707 0.319472 0.000000
0.474301 0.328240 0.000000
0.529683 0.337167 0.000000
0.584208 0.346217 0.000000
0.637314 0.355144 0.000000
0.688686 0.363117 0.000000
0.742368 0.370353 0.000000
0.794608 0.376897 0.000000
0.846408 0.381943 0.000000
0.897381 0.385790 0.000000
0.948799 0.387964 0.000000
1.000000 0.388867 0.000000
0.000000 0.334713 0.000000
0.060028 0.335530 0.000000
0.119901 0.338075 0.000000
0.178897 0.342172 0.000000
0.237756 0.347787 0.000000
0.296099 0.354673 0.000000
0.355144 0.362686 0.000000
0.409822 0.371543 0.000000
0.465098 0.380919 0.000000
0.520392 0.390703 0.000000
0.574925 0.400437 0.000000
0.628457 0.409822 0.000000
0.680528 0.418707 0.000000
0.735141 0.426726 0.000000
0.788514 0.433638 0.000000
0.841589 0.439287 0.000000
0.894145 0.443409 0.000000
0.947127 0.445965 0.000000
1.000000 0.446788 0.000000
0.000000 0.386326 0.000000
0.058281 0.387138 0.000000
0.116430 0.389867 0.000000
0.173903 0.394148 0.000000
0.231319 0.400070 0.000000
0.288513 0.407296 0.000000
0.346217 0.415792 0.000000
0.400437 0.425075 0.000000
0.455268 0.434806 0.000000
0.510339 0.445079 0.000000
0.565194 0.455268 0.000000
0.619081 0.465098 0.000000
0.671760 0.474301 0.000000
0.727456 0.482756 0.000000
0.782058 0.490073 0.000000
0.836576 0.495962 0.000000
0.890682 0.500270 0.000000
0.945364 0.502988 0.000000
1.000000 0.503828 0.000000
0.000000 0.440329 0.000000
0.056450 0.441311 0.000000
0.112871 0.443944 0.000000
0.168651 0.448371 0.000000
0.224647 0.454346 0.000000
0.280525 0.461777 0.000000
0.337167 0.470317 0.000000
0.390703 0.479608 0.000000
0.445079 0.489661 0.000000
0.500000 0.500000 0.000000
0.554921 0.510339 0.000000
0.609297 0.520392 0.000000
0.662833 0.529683 0.000000
0.719475 0.538223 0.000000
0.775353 0.545654 0.000000
0.831349 0.551629 0.000000
0.887129 0.556056 0.000000
0.943550 0.558689 0.000000
1.000000 0.559671 0.000000
0.000000 0.496172 0.000000
0.054635 0.497012 0.000000
0.109318 0.499730 0.000000
0.163424 0.504038 0.000000
0.217942 0.509927 0.000000
0.272544 0.517244 0.000000
0.328240 0.525699 0.000000
0.380919 0.534902 0.000000
0.434806 0.544732 0.000000
0.489661 0.554921 0.000000
0.544732 0.565194 0.000000
0.599563 0.574925 0.000000
0.653783 0.584208 0.000000
0.711487 0.592704 0.000000
0.768681 0.599930 0.000000
0.826097 0.605852 0.000000
0.883570 0.610133 0.000000
0.941719 0.612862 0.000000
1.000000 0.613674 0.000000
0.000000 0.553212 0.000000
0.052873 0.554035 0.000000
0.105855 0.556591 0.000000
0.158411 0.560713 0.000000
0.211486 0.566362 0.000000
0.264859 0.573274 0.000000
0.319472 0.581293 0.000000
0.371543 0.590178 0.000000
0.425075 0.599563 0.000000
0.479608 0.609297 0.000000
0.534902 0.619081 0.000000
0.590178 0.628457 0.000000
0.644856 0.637314 0.000000
0.703901 0.645327 0.000000
0.762244 0.652213 0.000000
0.821103 0.657828 0.000000
0.880099 0.661925 0.000000
0.939972 0.664470 0.000000
1.000000 0.665287 0.000000
0.000000 0.611133 0.000000
0.051201 0.612036 0.000000
0.102619 0.614210 0.000000
0.153592 0.618057 0.000000
0.205392 0.623103 0.000000
0.257632 0.629647 0.000000
0.311314 0.636883 0.000000
0.362686 0.644856 0.000000
0.415792 0.653783 0.000000
0.470317 0.662833 0.000000
0.525699 0.671760 0.000000
0.581293 0.680528 0.000000
0.636883 0.688686 0.000000
0.696553 0.696072 0.000000
0.756098 0.702686 0.000000
0.816278 0.707853 0.000000
0.876850 0.711788 0.000000
0.938291 0.714074 0.000000
1.000000 0.714961 0.000000
0.000000 0.673561 0.000000
0.049694 0.674215 0.000000
0.099677 0.676331 0.000000
0.149290 0.679685 0.000000
0.199837 0.684296 0.000000
0.250996 0.689974 0.000000
0.303928 0.696553 0.000000
0.354673 0.703901 0.000000
0.407296 0.711487 0.000000
0.461777 0.719475 0.000000
0.517244 0.727456 0.000000
0.573274 0.735141 0.000000
0.629647 0.742368 0.000000
0.689974 0.749004 0.000000
0.750626 0.754626 0.000000
0.811982 0.759197 0.000000
0.873952 0.762536 0.000000
0.936793 0.764611 0.000000
1.000000 0.765275 0.000000
0.000000 0.736808 0.000000
0.048395 0.737387 0.000000
0.097093 0.739138 0.000000
0.145594 0.741983 0.000000
0.195036 0.745847 0.000000
0.245374 0.750626 0.000000
0.297314 0.756098 0.000000
0.347787 0.762244 0.000000
0.400070 0.768681 0.000000
0.454346 0.775353 0.000000
0.509927 0.782058 0.000000
0.566362 0.788514 0.000000
0.623103 0.794608 0.000000
0.684296 0.800163 0.000000
0.745847 0.804964 0.000000
0.808261 0.808821 0.000000
0.871387 0.811686 0.000000
0.935486 0.813437 0.000000
1.000000 0.814034 0.000000
0.000000 0.801215 0.000000
0.047358 0.801658 0.000000
0.095037 0.803029 0.000000
0.142599 0.805240 0.000000
0.191179 0.808261 0.000000
0.240803 0.811982 0.000000
0.292147 0.816278 0.000000
0.342172 0.821103 0.000000
0.394148 0.826097 0.000000
0.448371 0.831349 0.000000
0.504038 0.836576 0.000000
0.560713 0.841589 0.000000
0.618057 0.846408 0.000000
0.679685 0.850710 0.000000
0.741983 0.854406 0.000000
0.805240 0.857401 0.000000
0.869339 0.859609 0.000000
0.934439 0.860963 0.000000
1.000000 0.861415 0.000000
0.000000 0.866582 0.000000
0.046580 0.866905 0.000000
0.093495 0.867820 0.000000
0.140391 0.869339 0.000000
0.188314 0.871387 0.000000
0.237464 0.873952 0.000000
0.288212 0.876850 0.000000
0.338075 0.880099 0.000000
0.389867 0.883570 0.000000
0.443944 0.887129 0.000000
0.499730 0.890682 0.000000
0.556591 0.894145 0.000000
0.614210 0.897381 0.000000
0.676331 0.900323 0.000000
0.739138 0.902907 0.000000
0.803029 0.904963 0.000000
0.867820 0.906505 0.000000
0.933662 0.907429 0.000000
1.000000 0.907761 0.000000
0.000000 0.933027 0.000000
0.046114 0.933189 0.000000
0.092571 0.933662 0.000000
0.139037 0.934439 0.000000
0.186563 0.935486 0.000000
0.235389 0.936793 0.000000
0.285926 0.938291 0.000000
0.335530 0.939972 0.000000
0.387138 0.941719 0.000000
0.441311 0.943550 0.000000
0.497012 0.945364 0.000000
0.554035 0.947127 0.000000
0.612036 0.948799 0.000000
0.674215 0.950305 0.000000
0.737387 0.951604 0.000000
0.801658 0.952642 0.000000
0.866905 0.953420 0.000000
0.933189 0.953886 0.000000
1.000000 0.954054 0.000000
0.000000 1.000000 0.000000
0.045946 1.000000 0.000000
0.092239 1.000000 0.000000
0.138585 1.000000 0.000000
0.185966 1.000000 0.000000
0.234725 1.000000 0.000000
0.285039 1.000000 0.000000
0.334713 1.000000 0.000000
0.386326 1.000000 0.000000
0.440329 1.000000 0.000000
0.496172 1.000000 0.000000
0.553212 1.000000 0.000000
0.611133 1.000000 0.000000
0.673561 1.000000 0.000000
0.736808 1.000000 0.000000
0.801215 1.000000 0.000000
0.866582 1.000000 0.000000
0.933027 1.000000 0.000000
1.000000 1.000000 0.000000
0.000000 0.000000 0.055000
0.066973 0.000000 0.055000
0.133418 0.000000 0.055000
0.198785 0.000000 0.055000
0.263192 0.000000 0.055000
0.326439 0.000000 0.055000
0.388867 0.000000 0.055000
0.446788 0.000000 0.055000
0.503828 0.000000 0.055000
0.559671 0.000000 0.055000
0.613674 0.000000 0.055000
0.665287 0.000000 0.055000
0.714961 0.000000 0.055000
0.765275 0.000000 0.055000
0.814034 0.000000 0.055000
0.861415 0.000000 0.055000
0.907761 0.000000 0.055000
0.954054 0.000000 0.055000
1.000000 0.000000 0.055000
0.000000 0.045946 0.055000
0.066811 0.046114 0.055000
0.133095 0.046580 0.055000
0.198342 0.047358 0.055000
0.262613 0.048395 0.055000
0.325785 0.049694 0.055000
0.387964 0.051201 0.055000
0.445965 0.052873 0.055000
0.502988 0.054635 0.055000
0.558689 0.056450 0.055000
0.612862 0.058281 0.055000
0.664470 0.060028 0.055000
0.714074 0.061708 0.055000
0.764611 0.063207 0.055000
0.813437 0.064514 0.055000
0.860963 0.065561 0.055000
0.907429 0.066337 0.055000
0.953886 0.066811 0.055000
1.000000 0.066973 0.055000
0.000000 0.092239 0.055000
0.066337 0.092571 0.055000
0.132180 0.093495 0.055000
0.196971 0.095037 0.055000
0.260862 0.097093 0.055000
0.323669 0.099677 0.055000
0.385790 0.102619 0.055000
0.443409 0.105855 0.055000
0.500270 0.109318 0.055000
0.556056 0.112871 0.055000
0.610133 0.116430 0.055000
0.661925 0.119901 0.055000
0.711788 0.123150 0.055000
0.762536 0.126048 0.055000
0.811686 0.128613 0.055000
0.859609 0.130661 0.055000
0.906505 0.132180 0.055000
0.953420 0.133095 0.055000
1.000000 0.133418 0.055000
0.000000 0.138585 0.055000
0.065561 0.139037 0.055000
0.130661 0.140391 0.055000
0.194760 0.142599 0.055000
0.258017 0.145594 0.055000
0.320315 0.149290 0.055000
0.381943 0.153592 0.055000
0.439287 0.158411 0.055000
0.495962 0.163424 0.055000
0.551629 0.168651 0.055000
0.605852 0.173903 0.055000
0.657828 0.178897 0.055000
0.707853 0.183722 0.055000
0.759197 0.188018 0.055000
0.808821 0.191739 0.055000
0.857401 0.194760 0.055000
0.904963 0.196971 0.055000
0.952642 0.198342 0.055000
1.000000 0.198785 0.055000
0.000000 0.185966 0.055000
0.064514 0.186563 0.055000
0.128613 0.188314 0.055000
0.191739 0.191179 0.055000
0.254153 0.195036 0.055000
0.315704 0.199837 0.055000
0.376897 0.205392 0.055000
0.433638 0.211486 0.055000
0.490073 0.217942 0.055000
0.545654 0.224647 0.055000
0.599930 0.231319 0.055000
0.652213 0.237756 0.055000
0.702686 0.243902 0.055000
0.754626 0.249374 0.055000
0.804964 0.254153 0.055000
0.854406 0.258017 0.055000
0.902907 0.260862 0.055000
0.951604 0.262613 0.055000
1.000000 0.263192 0.055000
0.000000 0.234725 0.055000
0.063207 0.235389 0.055000
0.126048 0.237464 0.055000
0.188018 0.240803 0.055000
0.249374 0.245374 0.055000
0.310026 0.250996 0.055000
0.370353 0.257632 0.055000
0.426726 0.264859 0.055000
0.482756 0.272544 0.055000
0.538223 0.280525 0.055000
0.592704 0.288513 0.055000
0.645327 0.296099 0.055000
0.696072 0.303447 0.055000
0.749004 0.310026 0.055000
0.800163 0.315704 0.055000
0.850710 0.320315 0.055000
0.900323 0.323669 0.055000
0.950305 0.325785 0.055000
1.000000 0.326439 0.055000
0.000000 0.285039 0.055000
0.061708 0.285926 0.055000
0.123150 0.288212 0.055000
0.183722 0.292147 0.055000
0.243902 0.297314 0.055000
0.303447 0.303928 0.055000
0.363117 0.311314 0.055000
0.418707 0.319472 0.055000
0.474301 0.328240 0.055000
0.529683 0.337167 0.055000
0.584208 0.346217 0.055000
0.637314 0.355144 0.055000
0.688686 0.363117 0.055000
0.742368 0.370353 0.055000
0.794608 0.376897 0.055000
0.846408 0.381943 0.055000
0.897381 0.385790 0.055000
0.948799 0.387964 0.055000
1.000000 0.388867 0.055000
0.000000 0.334713 0.055000
0.060028 0.335530 0.055000
0.119901 0.338075 0.055000
0.178897 0.342172 0.055000
0.237756 0.347787 0.055000
0.296099 0.354673 0.055000
0.355144 0.362686 0.055000
0.409822 0.371543 0.055000
0.465098 0.380919 0.055000
0.520392 0.390703 0.055000
0.574925 0.400437 0.055000
0.628457 0.409822 0.055000
0.680528 0.418707 0.055000
0.735141 0.426726 0.055000
0.788514 0.433638 0.055000
0.841589 0.439287 0.055000
0.894145 0.443409 0.055000
0.947127 0.445965 0.055000
1.000000 0.446788 0.055000
0.000000 0.386326 0.055000
0.058281 0.387138 0.055000
0.116430 0.389867 0.055000
0.173903 0.394148 0.055000
0.231319 0.400070 0.055000
0.288513 0.407296 0.055000
0.346217 0.415792 0.055000
0.400437 0.425075 0.055000
0.455268 0.434806 0.055000
0.510339 0.445079 0.055000
0.565194 0.455268 0.055000
0.619081 0.465098 0.055000
0.671760 0.474301 0.055000
0.727456 0.482756 0.055000
0.782058 0.490073 0.055000
0.836576 0.495962 0.055000
0.890682 0.500270 0.055000
0.945364 0.502988 0.055000
1.000000 0.503828 0.055000
0.000000 0.440329 0.055000
0.056450 0.441311 0.055000
0.112871 0.443944 0.055000
0.168651 0.448371 0.055000
0.224647 0.454346 0.055000
0.280525 0.461777 0.055000
0.337167 0.470317 0.055000
0.390703 0.479608 0.055000
0.445079 0.489661 0.055000
0.500000 0.500000 0.055000
0.554921 0.510339 0.055000
0.609297 0.520392 0.055000
0.662833 0.529683 0.055000
0.719475 0.538223 0.055000
0.775353 0.545654 0.055000
0.831349 0.551629 0.055000
0.887129 0.556056 0.055000
0.943550 0.558689 0.055000
1.000000 0.559671 0.055000
0.000000 0.496172 0.055000
0.054635 0.497012 0.055000
0.109318 0.499730 0.055000
0.163424 0.504038 0.055000
0.217942 0.509927 0.055000
0.272544 0.517244 0.055000
0.328240 0.525699 0.055000
0.380919 0.534902 0.055000
0.434806 0.544732 0.055000
0.489661 0.554921 0.055000
0.544732 0.565194 0.055000
0.599563 0.574925 0.055000
0.653783 0.584208 0.055000
0.711487 0.592704 0.055000
0.768681 0.599930 0.055000
0.826097 0.605852 0.055000
0.883570 0.610133 0.055000
0.941719 0.612862 0.055000
1.000000 0.613674 0.055000
0.000000 0.553212 0.055000
0.052873 0.554035 0.055000
0.105855 0.556591 0.055000
0.158411 0.560713 0.055000
0.211486 0.566362 0.055000
0.264859 0.573274 0.055000
0.319472 0.581293 0.055000
0.371543 0.590178 0.055000
0.425075 0.599563 0.055000
0.479608 0.609297 0.055000
0.534902 0.619081 0.055000
0.590178 0.628457 0.055000
0.644856 0.637314 0.055000
0.703901 0.645327 0.055000
0.762244 0.652213 0.055000
0.821103 0.657828 0.055000
0.880099 0.661925 0.055000
0.939972 0.664470 0.055000
1.000000 0.665287 0.055000
0.000000 0.611133 0.055000
0.051201 0.612036 0.055000
0.102619 0.614210 0.055000
0.153592 0.618057 0.055000
0.205392 0.623103 0.055000
0.257632 0.629647 0.055000
0.311314 0.636883 0.055000
0.362686 0.644856 0.055000
0.415792 0.653783 0.055000
0.470317 0.662833 0.055000
0.525699 0.671760 0.055000
0.581293 0.680528 0.055000
0.636883 0.688686 0.055000
0.696553 0.696072 0.055000
0.756098 0.702686 0.055000
0.816278 0.707853 0.055000
0.876850 0.711788 0.055000
0.938291 0.714074 0.055000
1.000000 0.714961 0.055000
0.000000 0.673561 0.055000
0.049694 0.674215 0.055000
0.099677 0.676331 0.055000
0.149290 0.679685 0.055000
0.199837 0.684296 0.055000
0.250996 0.689974 0.055000
0.303928 0.696553 0.055000
0.354673 0.703901 0.055000
0.407296 0.711487 0.055000
0.461777 0.719475 0.055000
0.517244 0.727456 0.055000
0.573274 0.735141 0.055000
0.629647 0.742368 0.055000
0.689974 0.749004 0.055000
0.750626 0.754626 0.055000
0.811982 0.759197 0.055000
0.873952 0.762536 0.055000
0.936793 0.764611 0.055000
1.000000 0.765275 0.055000
0.000000 0.736808 0.055000
0.048395 0.737387 0.055000
0.097093 0.739138 0.055000
0.145594 0.741983 0.055000
0.195036 0.745847 0.055000
0.245374 0.750626 0.055000
0.297314 0.756098 0.055000
0.347787 0.762244 0.055000
0.400070 0.768681 0.055000
0.454346 0.775353 0.055000
0.509927 0.782058 0.055000
0.566362 0.788514 0.055000
0.623103 0.794608 0.055000
0.684296 0.800163 0.055000
0.745847 0.804964 0.055000
0.808261 0.808821 0.055000
0.871387 0.811686 0.055000
0.935486 0.813437 0.055000
1.000000 0.814034 0.055000
0.000000 0.801215 0.055000
0.047358 0.801658 0.055000
0.095037 0.803029 0.055000
0.142599 0.805240 0.055000
0.191179 0.808261 0.055000
0.240803 0.811982 0.055000
0.292147 0.816278 0.055000
0.342172 0.821103 0.055000
0.394148 0.826097 0.055000
0.448371 0.831349 0.055000
0.504038 0.836576 0.055000
0.560713 0.841589 0.055000
0.618057 0.846408 0.055000
0.679685 0.850710 0.055000
0.741983 0.854406 0.055000
0.805240 0.857401 0.055000
0.869339 0.859609 0.055000
0.934439 0.860963 0.055000
1.000000 0.861415 0.055000
0.000000 0.866582 0.055000
0.046580 0.866905 0.055000
0.093495 0.867820 0.055000
0.140391 0.869339 0.055000
0.188314 0.871387 0.055000
0.237464 0.873952 0.055000
0.288212 0.876850 0.055000
0.338075 0.880099 0.055000
0.389867 0.883570 0.055000
0.443944 0.887129 0.055000
0.499730 0.890682 0.055000
0.556591 0.894145 0.055000
0.614210 0.897381 0.055000
0.676331 0.900323 0.055000
0.739138 0.902907 0.055000
0.803029 0.904963 0.055000
0.867820 0.906505 0.055000
0.933662 0.907429 0.055000
1.000000 0.907761 0.055000
0.000000 0.933027 0.055000
0.046114 0.933189 0.055000
0.092571 0.933662 0.055000
0.139037 0.934439 0.055000
0.186563 0.935486 0.055000
0.235389 0.936793 0.055000
0.285926 0.938291 0.055000
0.335530 0.939972 0.055000
0.387138 0.941719 0.055000
0.441311 0.943550 0.055000
0.497012 0.945364 0.055000
0.554035 0.947127 0.055000
0.612036 0.948799 0.055000
0.674215 0.950305 0.055000
0.737387 0.951604 0.055000
0.801658 0.952642 0.055000
0.866905 0.953420 0.055000
0.933189 0.953886 0.055000
1.000000 0.954054 0.055000
0.000000 1.000000 0.055000
0.045946 1.000000 0.055000
0.092239 1.000000 0.055000
0.138585 1.000000 0.055000
0.185966 1.000000 0.055000
0.234725 1.000000 0.055000
0.285039 1.000000 0.055000
0.334713 1.000000 0.055000
0.386326 1.000000 0.055000
0.440329 1.000000 0.055000
0.496172 1.000000 0.055000
0.553212 1.000000 0.055000
0.611133 1.000000 0.055000
0.673561 1.000000 0.055000
0.736808 1.000000 0.055000
0.801215 1.000000 0.055000
0.866582 1.000000 0.055000
0.933027 1.000000 0.055000
1.000000 1.000000 0.055000
0.000000 0.000000 0.110000
0.066973 0.000000 0.110000
0.133418 0.000000 0.110000
0.198785 0.000000 0.110000
0.263192 0.000000 0.110000
0.326439 0.000000 0.110000
0.388867 0.000000 0.110000
0.446788 0.000000 0.110000
0.503828 0.000000 0.110000
0.559671 0.000000 0.110000
0.613674 0.000000 0.110000
0.665287 0.000000 0.110000
0.714961 0.000000 0.110000
0.765275 0.000000 0.110000
0.814034 0.000000 0.110000
0.861415 0.000000 0.110000
0.907761 0.000000 0.110000