# vtk DataFile Version 2.0
Mesh for Fierro
ASCII 
DATASET UNSTRUCTURED_GRID

POINTS 2527 float
0.000000 0.000000 0.000000
0.152193 0.000000 0.000000
0.289899 0.000000 0.000000
0.409049 0.000000 0.000000
0.506618 0.000000 0.000000
0.583986 0.000000 0.000000
0.647344 0.000000 0.000000
0.701465 0.000000 0.000000
0.747547 0.000000 0.000000
0.785181 0.000000 0.000000
0.818170 0.000000 0.000000
0.848050 0.000000 0.000000
0.873704 0.000000 0.000000
0.898327 0.000000 0.000000
0.920520 0.000000 0.000000
0.941609 0.000000 0.000000
0.961978 0.000000 0.000000
0.980965 0.000000 0.000000
1.000000 0.000000 0.000000
0.000000 0.019038 0.000000
0.151395 0.020466 0.000000
0.288364 0.023759 0.000000
0.406656 0.029158 0.000000
0.503700 0.035541 0.000000
0.580819 0.044086 0.000000
0.644213 0.053172 0.000000
0.697255 0.063836 0.000000
0.742569 0.075402 0.000000
0.779734 0.086832 0.000000
0.812175 0.097933 0.000000
0.841849 0.109126 0.000000
0.867863 0.120084 0.000000
0.892371 0.129296 0.000000
0.915236 0.137107 0.000000
0.937362 0.143677 0.000000
0.958426 0.147888 0.000000
0.979535 0.151391 0.000000
1.000000 0.152191 0.000000
0.000000 0.038029 0.000000
0.147887 0.041573 0.000000
0.282699 0.047288 0.000000
0.398524 0.058027 0.000000
0.494110 0.070326 0.000000
0.570538 0.086689 0.000000
0.633210 0.104220 0.000000
0.685710 0.124539 0.000000
0.729816 0.146213 0.000000
0.767021 0.167675 0.000000
0.798997 0.189714 0.000000
0.828207 0.210040 0.000000
0.855164 0.230765 0.000000
0.880708 0.248117 0.000000
0.905117 0.262577 0.000000
0.929155 0.274534 0.000000
0.952713 0.282697 0.000000
0.976241 0.288366 0.000000
1.000000 0.289899 0.000000
0.000000 0.058389 0.000000
0.143677 0.062638 0.000000
0.274533 0.070844 0.000000
0.387280 0.086350 0.000000
0.480306 0.104090 0.000000
0.554641 0.127335 0.000000
0.615712 0.152198 0.000000
0.665925 0.180438 0.000000
0.708111 0.211099 0.000000
0.743922 0.240374 0.000000
0.774881 0.270778 0.000000
0.804371 0.298951 0.000000
0.831167 0.327509 0.000000
0.858622 0.350824 0.000000
0.885772 0.370673 0.000000
0.913650 0.387281 0.000000
0.941972 0.398524 0.000000
0.970842 0.406655 0.000000
1.000000 0.409049 0.000000
0.000000 0.079476 0.000000
0.137116 0.084763 0.000000
0.262575 0.094885 0.000000
0.370674 0.114228 0.000000
0.461322 0.137088 0.000000
0.532656 0.165748 0.000000
0.591813 0.196520 0.000000
0.639931 0.231082 0.000000
0.679979 0.268734 0.000000
0.714409 0.305634 0.000000
0.745401 0.341410 0.000000
0.775237 0.375140 0.000000
0.802268 0.409782 0.000000
0.832126 0.437801 0.000000
0.862909 0.461326 0.000000
0.895909 0.480308 0.000000
0.929675 0.494108 0.000000
0.964458 0.503701 0.000000
1.000000 0.506618 0.000000
0.000000 0.101664 0.000000
0.129296 0.107629 0.000000
0.248113 0.119291 0.000000
0.350822 0.141378 0.000000
0.437801 0.167876 0.000000
0.505654 0.201047 0.000000
0.563124 0.236201 0.000000
0.607948 0.276173 0.000000
0.644663 0.318881 0.000000
0.678091 0.359964 0.000000
0.707936 0.401291 0.000000
0.737639 0.438064 0.000000
0.765931 0.474616 0.000000
0.798953 0.505653 0.000000
0.834253 0.532653 0.000000
0.872666 0.554638 0.000000
0.913310 0.570539 0.000000
0.955913 0.580818 0.000000
1.000000 0.583986 0.000000
0.000000 0.126316 0.000000
0.120096 0.132140 0.000000
0.230772 0.144838 0.000000
0.327507 0.168833 0.000000
0.409784 0.197731 0.000000
0.474614 0.234069 0.000000
0.530802 0.273291 0.000000
0.571742 0.317086 0.000000
0.605455 0.363906 0.000000
0.638037 0.407946 0.000000
0.666453 0.452774 0.000000
0.696802 0.492839 0.000000
0.726709 0.530801 0.000000
0.763799 0.563125 0.000000
0.803480 0.591814 0.000000
0.847801 0.615713 0.000000
0.895780 0.633210 0.000000
0.946828 0.644214 0.000000
1.000000 0.647342 0.000000
0.000000 0.151957 0.000000
0.109128 0.158147 0.000000
0.210041 0.171793 0.000000
0.298951 0.195629 0.000000
0.375141 0.224763 0.000000
0.438064 0.262361 0.000000
0.492839 0.303198 0.000000
0.530701 0.347631 0.000000
0.562589 0.394708 0.000000
0.593603 0.441476 0.000000
0.621869 0.487460 0.000000
0.652369 0.530702 0.000000
0.682915 0.571742 0.000000
0.723827 0.607947 0.000000
0.768918 0.639932 0.000000
0.819562 0.665925 0.000000
0.875461 0.685710 0.000000
0.936163 0.697254 0.000000
1.000000 0.701467 0.000000
0.000000 0.181826 0.000000
0.097933 0.187828 0.000000
0.189718 0.201003 0.000000
0.270775 0.225119 0.000000
0.341412 0.254599 0.000000
0.401290 0.292064 0.000000
0.452775 0.333547 0.000000
0.487461 0.378132 0.000000
0.518519 0.424259 0.000000
0.547480 0.471561 0.000000
0.575742 0.518520 0.000000
0.605292 0.562588 0.000000
0.636093 0.605455 0.000000
0.681120 0.644663 0.000000
0.731266 0.679978 0.000000
0.788901 0.708111 0.000000
0.853786 0.729816 0.000000
0.924597 0.742570 0.000000
1.000000 0.747544 0.000000
0.000000 0.214816 0.000000
0.086830 0.220267 0.000000
0.167675 0.232979 0.000000
0.240374 0.256079 0.000000
0.305634 0.285590 0.000000
0.359964 0.321909 0.000000
0.407946 0.361963 0.000000
0.441478 0.406396 0.000000
0.471562 0.452521 0.000000
0.499999 0.499998 0.000000
0.528440 0.547480 0.000000
0.558522 0.593604 0.000000
0.592055 0.638037 0.000000
0.640036 0.678091 0.000000
0.694367 0.714410 0.000000
0.759626 0.743921 0.000000
0.832326 0.767022 0.000000
0.913168 0.779733 0.000000
1.000000 0.785185 0.000000
0.000000 0.252456 0.000000
0.075404 0.257430 0.000000
0.146214 0.270184 0.000000
0.211099 0.291889 0.000000
0.268734 0.320022 0.000000
0.318880 0.355337 0.000000
0.363906 0.394546 0.000000
0.394708 0.437411 0.000000
0.424256 0.481484 0.000000
0.452521 0.528437 0.000000
0.481482 0.575745 0.000000
0.512539 0.621867 0.000000
0.547225 0.666454 0.000000
0.598710 0.707936 0.000000
0.658587 0.745401 0.000000
0.729225 0.774881 0.000000
0.810280 0.798997 0.000000
0.902073 0.812173 0.000000
1.000000 0.818181 0.000000
0.000000 0.298533 0.000000
0.063835 0.302746 0.000000
0.124539 0.314290 0.000000
0.180438 0.334075 0.000000
0.231082 0.360069 0.000000
0.276173 0.392053 0.000000
0.317085 0.428257 0.000000
0.347631 0.469299 0.000000
0.378132 0.512538 0.000000
0.406395 0.558523 0.000000
0.437412 0.605292 0.000000
0.469298 0.652369 0.000000
0.507160 0.696802 0.000000
0.561936 0.737639 0.000000
0.624858 0.775237 0.000000
0.701050 0.804370 0.000000
0.789958 0.828208 0.000000
0.890876 0.841852 0.000000
1.000000 0.848034 0.000000
0.000000 0.352657 0.000000
0.053172 0.355787 0.000000
0.104221 0.366790 0.000000
0.152199 0.384287 0.000000
0.196519 0.408187 0.000000
0.236201 0.436876 0.000000
0.273292 0.469198 0.000000
0.303198 0.507160 0.000000
0.333547 0.547225 0.000000
0.361964 0.592054 0.000000
0.394545 0.636094 0.000000
0.428258 0.682914 0.000000
0.469197 0.726708 0.000000
0.525388 0.765932 0.000000
0.590213 0.802268 0.000000
0.672495 0.831168 0.000000
0.769222 0.855160 0.000000
0.879914 0.867863 0.000000
1.000000 0.873706 0.000000
0.000000 0.416014 0.000000
0.044086 0.419181 0.000000
0.086689 0.429461 0.000000
0.127334 0.445361 0.000000
0.165749 0.467345 0.000000
0.201048 0.494346 0.000000
0.234068 0.525386 0.000000
0.262361 0.561936 0.000000
0.292064 0.598711 0.000000
0.321909 0.640036 0.000000
0.355337 0.681120 0.000000
0.392053 0.723827 0.000000
0.436875 0.763799 0.000000
0.494347 0.798953 0.000000
0.562199 0.832124 0.000000
0.649179 0.858621 0.000000
0.751887 0.880710 0.000000
0.870705 0.892370 0.000000
1.000000 0.898330 0.000000
0.000000 0.493382 0.000000
0.035541 0.496301 0.000000
0.070326 0.505891 0.000000
0.104091 0.519693 0.000000
0.137086 0.538678 0.000000
0.167876 0.562199 0.000000
0.197732 0.590217 0.000000
0.224763 0.624859 0.000000
0.254599 0.658586 0.000000
0.285590 0.694366 0.000000
0.320022 0.731266 0.000000
0.360068 0.768918 0.000000
0.408187 0.803482 0.000000
0.467344 0.834251 0.000000
0.538678 0.862913 0.000000
0.629326 0.885770 0.000000
0.737424 0.905118 0.000000
0.862886 0.915231 0.000000
1.000000 0.920515 0.000000
0.000000 0.590951 0.000000
0.029158 0.593343 0.000000
0.058027 0.601476 0.000000
0.086350 0.612719 0.000000
0.114229 0.629327 0.000000
0.141379 0.649177 0.000000
0.168831 0.672491 0.000000
0.195629 0.701049 0.000000
0.225120 0.729226 0.000000
0.256079 0.759626 0.000000
0.291889 0.788901 0.000000
0.334076 0.819562 0.000000
0.384287 0.847800 0.000000
0.445361 0.872667 0.000000
0.519693 0.895909 0.000000
0.612719 0.913651 0.000000
0.725469 0.929154 0.000000
0.856317 0.937363 0.000000
1.000000 0.941592 0.000000
0.000000 0.710101 0.000000
0.023758 0.711638 0.000000
0.047289 0.717304 0.000000
0.070845 0.725468 0.000000
0.094882 0.737424 0.000000
0.119290 0.751884 0.000000
0.144840 0.769233 0.000000
0.171794 0.789959 0.000000
0.201002 0.810280 0.000000
0.232978 0.832325 0.000000
0.270185 0.853786 0.000000
0.314290 0.875461 0.000000
0.366791 0.895780 0.000000
0.429460 0.913310 0.000000
0.505892 0.929675 0.000000
0.601475 0.941972 0.000000
0.717304 0.952713 0.000000
0.852103 0.958428 0.000000
1.000000 0.961979 0.000000
0.000000 0.847806 0.000000
0.020466 0.848598 0.000000
0.041570 0.852105 0.000000
0.062639 0.856320 0.000000
0.084767 0.862887 0.000000
0.107630 0.870706 0.000000
0.132138 0.879903 0.000000
0.158146 0.890872 0.000000
0.187829 0.902069 0.000000
0.220268 0.913169 0.000000
0.257430 0.924596 0.000000
0.302746 0.936164 0.000000
0.355787 0.946828 0.000000
0.419181 0.955913 0.000000
0.496301 0.964458 0.000000
0.593343 0.970842 0.000000
0.711639 0.976240 0.000000
0.848597 0.979536 0.000000
1.000000 0.980981 0.000000
0.000000 1.000000 0.000000
0.019034 1.000000 0.000000
0.038017 1.000000 0.000000
0.058413 1.000000 0.000000
0.079484 1.000000 0.000000
0.101679 1.000000 0.000000
0.126288 1.000000 0.000000
0.151955 1.000000 0.000000
0.181828 1.000000 0.000000
0.214817 1.000000 0.000000
0.252454 1.000000 0.000000
0.298534 1.000000 0.000000
0.352656 1.000000 0.000000
0.416015 1.000000 0.000000
0.493381 1.000000 0.000000
0.590952 1.000000 0.000000
0.710098 1.000000 0.000000
0.847812 1.000000 0.000000
1.000000 1.000000 0.000000
0.000000 0.000000 0.055002
0.152195 0.000000 0.055000
0.289898 0.000000 0.055000
0.409050 0.000000 0.055000
0.506617 0.000000 0.055000
[...]
POINT_DATA 2527 
VECTORS pos float 
0.000000 0.000000 0.000000
0.152193 0.000000 0.000000
0.289899 0.000000 0.000000
0.409049 0.000000 0.000000
0.506618 0.000000 0.000000
0.583986 0.000000 0.000000
0.647344 0.000000 0.000000
0.701465 0.000000 0.000000
0.747547 0.000000 0.000000
0.785181 0.000000 0.000000
0.818170 0.000000 0.000000
0.848050 0.000000 0.000000
0.873704 0.000000 0.000000
0.898327 0.000000 0.000000
0.920520 0.000000 0.000000
0.941609 0.000000 0.000000
0.961978 0.000000 0.000000
0.980965 0.000000 0.000000
1.000000 0.000000 0.000000
0.000000 0.019038 0.000000
0.151395 0.020466 0.000000
0.288364 0.023759 0.000000
0.406656 0.029158 0.000000
0.503700 0.035541 0.000000
0.580819 0.044086 0.000000
0.644213 0.053172 0.000000
0.697255 0.063836 0.000000
0.742569 0.075402 0.000000
0.779734 0.086832 0.000000
0.812175 0.097933 0.000000
0.841849 0.109126 0.000000
0.867863 0.120084 0.000000
0.892371 0.129296 0.000000
0.915236 0.137107 0.000000
0.937362 0.143677 0.000000
0.958426 0.147888 0.000000
0.979535 0.151391 0.000000
1.000000 0.152191 0.000000
0.000000 0.038029 0.000000
0.147887 0.041573 0.000000
0.282699 0.047288 0.000000
0.398524 0.058027 0.000000
0.494110 0.070326 0.000000
0.570538 0.086689 0.000000
0.633210 0.104220 0.000000
0.685710 0.124539 0.000000
0.729816 0.146213 0.000000
0.767021 0.167675 0.000000
0.798997 0.189714 0.000000
0.828207 0.210040 0.000000
0.855164 0.230765 0.000000
0.880708 0.248117 0.000000
0.905117 0.262577 0.000000
0.929155 0.274534 0.000000
0.952713 0.282697 0.000000
0.976241 0.288366 0.000000
1.000000 0.289899 0.000000
0.000000 0.058389 0.000000
0.143677 0.062638 0.000000
0.274533 0.070844 0.000000
0.387280 0.086350 0.000000
0.480306 0.104090 0.000000
0.554641 0.127335 0.000000
0.615712 0.152198 0.000000
0.665925 0.180438 0.000000
0.708111 0.211099 0.000000
0.743922 0.240374 0.000000
0.774881 0.270778 0.000000
0.804371 0.298951 0.000000
0.831167 0.327509 0.000000
0.858622 0.350824 0.000000
0.885772 0.370673 0.000000
0.913650 0.387281 0.000000
0.941972 0.398524 0.000000
0.970842 0.406655 0.000000
1.000000 0.409049 0.000000
0.000000 0.079476 0.000000
0.137116 0.084763 0.000000
0.262575 0.094885 0.000000
0.370674 0.114228 0.000000
0.461322 0.137088 0.000000
0.532656 0.165748 0.000000
0.591813 0.196520 0.000000
0.639931 0.231082 0.000000
0.679979 0.268734 0.000000
0.714409 0.305634 0.000000
0.745401 0.341410 0.000000
0.775237 0.375140 0.000000
0.802268 0.409782 0.000000
0.832126 0.437801 0.000000
0.862909 0.461326 0.000000
0.895909 0.480308 0.000000
0.929675 0.494108 0.000000
0.964458 0.503701 0.000000
1.000000 0.506618 0.000000
0.000000 0.101664 0.000000
0.129296 0.107629 0.000000
0.248113 0.119291 0.000000
0.350822 0.141378 0.000000
0.437801 0.167876 0.000000
0.505654 0.201047 0.000000
0.563124 0.236201 0.000000
0.607948 0.276173 0.000000
0.644663 0.318881 0.000000
0.678091 0.359964 0.000000
0.707936 0.401291 0.000000
0.737639 0.438064 0.000000
0.765931 0.474616 0.000000
0.798953 0.505653 0.000000
0.834253 0.532653 0.000000
0.872666 0.554638 0.000000
0.913310 0.570539 0.000000
0.955913 0.580818 0.000000
1.000000 0.583986 0.000000
0.000000 0.126316 0.000000
0.120096 0.132140 0.000000
0.230772 0.144838 0.000000
0.327507 0.168833 0.000000
0.409784 0.197731 0.000000
0.474614 0.234069 0.000000
0.530802 0.273291 0.000000
0.571742 0.317086 0.000000
0.605455 0.363906 0.000000
0.638037 0.407946 0.000000
0.666453 0.452774 0.000000
0.696802 0.492839 0.000000
0.726709 0.530801 0.000000
0.763799 0.563125 0.000000
0.803480 0.591814 0.000000
0.847801 0.615713 0.000000
0.895780 0.633210 0.000000
0.946828 0.644214 0.000000
1.000000 0.647342 0.000000
0.000000 0.151957 0.000000
0.109128 0.158147 0.000000
0.210041 0.171793 0.000000
0.298951 0.195629 0.000000
0.375141 0.224763 0.000000
0.438064 0.262361 0.000000
0.492839 0.303198 0.000000
0.530701 0.347631 0.000000
0.562589 0.394708 0.000000
0.593603 0.441476 0.000000
0.621869 0.487460 0.000000
0.652369 0.530702 0.000000
0.682915 0.571742 0.000000
0.723827 0.607947 0.000000
0.768918 0.639932 0.000000
0.819562 0.665925 0.000000
0.875461 0.685710 0.000000
0.936163 0.697254 0.000000
1.000000 0.701467 0.000000
0.000000 0.181826 0.000000
0.097933 0.187828 0.000000
0.189718 0.201003 0.000000
0.270775 0.225119 0.000000
0.341412 0.254599 0.000000
0.401290 0.292064 0.000000
0.452775 0.333547 0.000000
0.487461 0.378132 0.000000
0.518519 0.424259 0.000000
0.547480 0.471561 0.000000
0.575742 0.518520 0.000000
0.605292 0.562588 0.000000
0.636093 0.605455 0.000000
0.681120 0.644663 0.000000
0.731266 0.679978 0.000000
0.788901 0.708111 0.000000
0.853786 0.729816 0.000000
0.924597 0.742570 0.000000
1.000000 0.747544 0.000000
0.000000 0.214816 0.000000
0.086830 0.220267 0.000000
0.167675 0.232979 0.000000
0.240374 0.256079 0.000000
0.305634 0.285590 0.000000
0.359964 0.321909 0.000000
0.407946 0.361963 0.000000
0.441478 0.406396 0.000000
0.471562 0.452521 0.000000
0.499999 0.499998 0.000000
0.528440 0.547480 0.000000
0.558522 0.593604 0.000000
0.592055 0.638037 0.000000
0.640036 0.678091 0.000000
0.694367 0.714410 0.000000
0.759626 0.743921 0.000000
0.832326 0.767022 0.000000
0.913168 0.779733 0.000000
1.000000 0.785185 0.000000
0.000000 0.252456 0.000000
0.075404 0.257430 0.000000
0.146214 0.270184 0.000000
0.211099 0.291889 0.000000
0.268734 0.320022 0.000000
0.318880 0.355337 0.000000
0.363906 0.394546 0.000000
0.394708 0.437411 0.000000
0.424256 0.481484 0.000000
0.452521 0.528437 0.000000
0.481482 0.575745 0.000000
0.512539 0.621867 0.000000
0.547225 0.666454 0.000000
0.598710 0.707936 0.000000
0.658587 0.745401 0.000000
0.729225 0.774881 0.000000
0.810280 0.798997 0.000000
0.902073 0.812173 0.000000
1.000000 0.818181 0.000000
0.000000 0.298533 0.000000
0.063835 0.302746 0.000000
0.124539 0.314290 0.000000
0.180438 0.334075 0.000000
0.231082 0.360069 0.000000
0.276173 0.392053 0.000000
0.317085 0.428257 0.000000
0.347631 0.469299 0.000000
0.378132 0.512538 0.000000
0.406395 0.558523 0.000000
0.437412 0.605292 0.000000
0.469298 0.652369 0.000000
0.507160 0.696802 0.000000
0.561936 0.737639 0.000000
0.624858 0.775237 0.000000
0.701050 0.804370 0.000000
0.789958 0.828208 0.000000
0.890876 0.841852 0.000000
1.000000 0.848034 0.000000
0.000000 0.352657 0.000000
0.053172 0.355787 0.000000
0.104221 0.366790 0.000000
0.152199 0.384287 0.000000
0.196519 0.408187 0.000000
0.236201 0.436876 0.000000
0.273292 0.469198 0.000000
0.303198 0.507160 0.000000
0.333547 0.547225 0.000000
0.361964 0.592054 0.000000
0.394545 0.636094 0.000000
0.428258 0.682914 0.000000
0.469197 0.726708 0.000000
0.525388 0.765932 0.000000
0.590213 0.802268 0.000000
0.672495 0.831168 0.000000
0.769222 0.855160 0.000000
0.879914 0.867863 0.000000
1.000000 0.873706 0.000000
0.000000 0.416014 0.000000
0.044086 0.419181 0.000000
0.086689 0.429461 0.000000
0.127334 0.445361 0.000000
0.165749 0.467345 0.000000
0.201048 0.494346 0.000000
0.234068 0.525386 0.000000
0.262361 0.561936 0.000000
0.292064 0.598711 0.000000
0.321909 0.640036 0.000000
0.355337 0.681120 0.000000
0.392053 0.723827 0.000000
0.436875 0.763799 0.000000
0.494347 0.798953 0.000000
0.562199 0.832124 0.000000
0.649179 0.858621 0.000000
0.751887 0.880710 0.000000
0.870705 0.892370 0.000000
1.000000 0.898330 0.000000
0.000000 0.493382 0.000000
0.035541 0.496301 0.000000
0.070326 0.505891 0.000000
0.104091 0.519693 0.000000
0.137086 0.538678 0.000000
0.167876 0.562199 0.000000
0.197732 0.590217 0.000000
0.224763 0.624859 0.000000
0.254599 0.658586 0.000000
0.285590 0.694366 0.000000
0.320022 0.731266 0.000000
0.360068 0.768918 0.000000
0.408187 0.803482 0.000000
0.467344 0.834251 0.000000
0.538678 0.862913 0.000000
0.629326 0.885770 0.000000
0.737424 0.905118 0.000000
0.862886 0.915231 0.000000
1.000000 0.920515 0.000000
0.000000 0.590951 0.000000
0.029158 0.593343 0.000000
0.058027 0.601476 0.000000
0.086350 0.612719 0.000000
0.114229 0.629327 0.000000
0.141379 0.649177 0.000000
0.168831 0.672491 0.000000
0.195629 0.701049 0.000000
0.225120 0.729226 0.000000
0.256079 0.759626 0.000000
0.291889 0.788901 0.000000
0.334076 0.819562 0.000000
0.384287 0.847800 0.000000
0.445361 0.872667 0.000000
0.519693 0.895909 0.000000
0.612719 0.913651 0.000000
0.725469 0.929154 0.000000
0.856317 0.937363 0.000000
1.000000 0.941592 0.000000
0.000000 0.710101 0.000000
0.023758 0.711638 0.000000
0.047289 0.717304 0.000000
0.070845 0.725468 0.000000
0.094882 0.737424 0.000000
0.119290 0.751884 0.000000
0.144840 0.769233 0.000000
0.171794 0.789959 0.000000
0.201002 0.810280 0.000000
0.232978 0.832325 0.000000
0.270185 0.853786 0.000000
0.314290 0.875461 0.000000
0.366791 0.895780 0.000000
0.429460 0.913310 0.000000
0.505892 0.929675 0.000000
0.601475 0.941972 0.000000
0.717304 0.952713 0.000000
0.852103 0.958428 0.000000
1.000000 0.961979 0.000000
0.000000 0.847806 0.000000
0.020466 0.848598 0.000000
0.041570 0.852105 0.000000
0.062639 0.856320 0.000000
0.084767 0.862887 0.000000
0.107630 0.870706 0.000000
0.132138 0.879903 0.000000
0.158146 0.890872 0.000000
0.187829 0.902069 0.000000
0.220268 0.913169 0.000000
0.257430 0.924596 0.000000
0.302746 0.936164 0.000000
0.355787 0.946828 0.000000
0.419181 0.955913 0.000000
0.496301 0.964458 0.000000
0.593343 0.970842 0.000000
0.711639 0.976240 0.000000
0.848597 0.979536 0.000000
1.000000 0.980981 0.000000
0.000000 1.000000 0.000000
0.019034 1.000000 0.000000
0.038017 1.000000 0.000000
0.058413 1.000000 0.000000
0.079484 1.000000 0.000000
0.101679 1.000000 0.000000
0.126288 1.000000 0.000000
0.151955 1.000000 0.000000
0.181828 1.000000 0.000000
0.214817 1.000000 0.000000
0.252454 1.000000 0.000000
0.298534 1.000000 0.000000
0.352656 1.000000 0.000000
0.416015 1.000000 0.000000
0.493381 1.000000 0.000000
0.590952 1.000000 0.000000
0.710098 1.000000 0.000000
0.847812 1.000000 0.000000
1.000000 1.000000 0.000000
0.000000 0.000000 0.055002
0.152195 0.000000 0.055000
0.289898 0.000000 0.055000
0.409050 0.000000 0.055000
0.506617 0.000000 0.055000
0.583985 0.000000 0.055000
0.647343 0.000000 0.055001
0.701466 0.000000 0.054999
0.747546 0.000000 0.055001
0.785184 0.000000 0.055000
0.818177 0.000000 0.055000
0.848035 0.000000 0.054996
0.873695 0.000000 0.055002
0.898321 0.000000 0.055005
0.920531 0.000000 0.054992
0.941571 0.000000 0.055005
0.962015 0.000000 0.055001
0.980982 0.000000 0.054997
1.000000 0.000000 0.055001
0.000000 0.019021 0.054996
0.151393 0.020465 0.055000
0.288366 0.023759 0.055000
0.406655 0.029158 0.055000
0.503701 0.035541 0.055000
0.580818 0.044087 0.055000
0.644214 0.053171 0.055000
0.697255 0.063837 0.055000
0.742569 0.075401 0.055000
0.779734 0.086833 0.055000
0.812176 0.097926 0.055000
0.841848 0.109123 0.055000
0.867867 0.120094 0.055000
0.892367 0.129299 0.055000
0.915239 0.137111 0.055000
0.937358 0.143677 0.055000
0.958430 0.147891 0.055000
0.979535 0.151392 0.055000
1.000000 0.152194 0.055000
0.000000 0.037980 0.055003
0.147893 0.041569 0.055000
0.282695 0.047289 0.055000
0.398525 0.058027 0.055000
0.494108 0.070325 0.055000
0.570538 0.086689 0.055000
0.633210 0.104220 0.055000
0.685710 0.124539 0.055000
0.729816 0.146214 0.055000
0.767021 0.167675 0.055000
0.798997 0.189716 0.055000
0.828208 0.210040 0.055001
0.855159 0.230771 0.054999
0.880711 0.248112 0.054999
0.905115 0.262577 0.055001
0.929157 0.274533 0.055000
0.952712 0.282697 0.055000
0.976241 0.288365 0.055000
1.000000 0.289899 0.055000
0.000000 0.058439 0.055003
0.143679 0.062643 0.055000
0.274532 0.070842 0.055000
0.387281 0.086351 0.055000
0.480308 0.104090 0.055000
0.554639 0.127335 0.055000
0.615713 0.152198 0.055000
0.665925 0.180438 0.055000
0.708111 0.211099 0.055000
0.743921 0.240374 0.055000
0.774881 0.270777 0.055000
0.804370 0.298951 0.055000
0.831168 0.327508 0.055000
0.858621 0.350822 0.055000
0.885772 0.370674 0.055000
0.913649 0.387280 0.055000
0.941972 0.398524 0.055000
0.970842 0.406655 0.055000
1.000000 0.409050 0.055000
0.000000 0.079470 0.054991
0.137107 0.084762 0.054999
0.262577 0.094885 0.055000
0.370673 0.114228 0.055000
0.461325 0.137091 0.055000
0.532654 0.165747 0.055000
0.591814 0.196520 0.055000
0.639931 0.231082 0.055000
0.679978 0.268734 0.055000
0.714410 0.305634 0.055000
0.745401 0.341411 0.055000
0.775237 0.375141 0.055000
0.802267 0.409782 0.055000
0.832126 0.437800 0.055000
0.862910 0.461323 0.055000
0.895910 0.480307 0.055000
0.929675 0.494109 0.055000
0.964459 0.503700 0.055000
1.000000 0.506618 0.055000
0.000000 0.101690 0.055006
0.129298 0.107632 0.055001
0.248114 0.119290 0.055000
0.350823 0.141379 0.055000
0.437800 0.167874 0.055000
0.505653 0.201047 0.055000
0.563124 0.236201 0.055000
0.607948 0.276173 0.055000
0.644663 0.318880 0.055000
0.678091 0.359964 0.055000
0.707936 0.401291 0.055000
0.737639 0.438064 0.055000
0.765931 0.474615 0.055000
0.798953 0.505654 0.055000
0.834253 0.532655 0.055000
0.872665 0.554640 0.055000
0.913310 0.570539 0.055000
0.955913 0.580818 0.055000
1.000000 0.583985 0.055000
0.000000 0.126285 0.055001
0.120085 0.132134 0.054999
0.230767 0.144839 0.055001
0.327509 0.168832 0.055000
0.409782 0.197732 0.055000
0.474616 0.234069 0.055000
0.530801 0.273291 0.055000
0.571742 0.317086 0.055000
0.605455 0.363906 0.055000
0.638037 0.407946 0.055000
0.666453 0.452775 0.055000
0.696802 0.492839 0.055000
0.726709 0.530801 0.055000
0.763799 0.563124 0.055000
0.803480 0.591813 0.055000
0.847802 0.615713 0.055000
0.895780 0.633210 0.055000
0.946829 0.644214 0.055000
1.000000 0.647342 0.055000
0.000000 0.151958 0.054997
0.109124 0.158152 0.054999
0.210040 0.171793 0.055000
0.298951 0.195629 0.055000
0.375141 0.224763 0.055000
0.438064 0.262361 0.055000
0.492839 0.303198 0.055000
0.530702 0.347631 0.055000
0.562589 0.394708 0.055000
0.593603 0.441476 0.055000
0.621869 0.487460 0.055000
0.652369 0.530702 0.055000
0.682915 0.571742 0.055000
0.723827 0.607948 0.055000
0.768918 0.639931 0.055000
0.819562 0.665925 0.055000
0.875461 0.685710 0.055000
0.936162 0.697255 0.055000
1.000000 0.701468 0.055000
0.000000 0.181825 0.054999
0.097929 0.187825 0.055000
0.189714 0.201004 0.055000
0.270778 0.225119 0.055000
0.341410 0.254599 0.055000
0.401291 0.292064 0.055000
0.452774 0.333547 0.055000
0.487461 0.378131 0.055000
0.518520 0.424256 0.055000
0.547483 0.471560 0.055000
0.575743 0.518520 0.055000
0.605292 0.562588 0.055000
0.636094 0.605455 0.055000
0.681120 0.644663 0.055000
0.731266 0.679978 0.055000
0.788901 0.708111 0.055000
0.853786 0.729816 0.055000
0.924599 0.742569 0.055000
1.000000 0.747543 0.055000
0.000000 0.214818 0.055000
0.086833 0.220266 0.055000
0.167675 0.232979 0.055000
0.240374 0.256079 0.055000
0.305634 0.285591 0.055000
0.359964 0.321909 0.055000
0.407946 0.361964 0.055000
0.441477 0.406395 0.055000
0.471561 0.452519 0.055000
0.499998 0.500000 0.055000
0.528440 0.547481 0.055000
0.558523 0.593604 0.055000
0.592055 0.638036 0.055000
0.640036 0.678091 0.055000
0.694367 0.714410 0.055000
0.759626 0.743921 0.055000
0.832325 0.767021 0.055000
0.913166 0.779734 0.055000
1.000000 0.785188 0.055000
0.000000 0.252453 0.055000
0.075401 0.257431 0.055000
0.146213 0.270184 0.055000
0.211099 0.291889 0.055000
0.268734 0.320022 0.055000
0.318880 0.355337 0.055000
0.363906 0.394546 0.055000
0.394708 0.437411 0.055000
0.424255 0.481483 0.055000
0.452520 0.528438 0.055000
0.481481 0.575745 0.055000
0.512539 0.621869 0.055000
0.547225 0.666453 0.055000
0.598710 0.707936 0.055000
0.658588 0.745401 0.055000
0.729224 0.774881 0.055000
0.810284 0.798997 0.055000
0.902078 0.812177 0.055000
1.000000 0.818187 0.055001
0.000000 0.298535 0.055000
0.063836 0.302745 0.055000
0.124539 0.314290 0.055000
0.180438 0.334075 0.055000
0.231082 0.360069 0.055000
0.276173 0.392052 0.055000
0.317085 0.428257 0.055000
0.347631 0.469299 0.055000
0.378131 0.512538 0.055000
0.406395 0.558523 0.055000
0.437412 0.605292 0.055000
0.469298 0.652369 0.055000
0.507161 0.696802 0.055000
0.561936 0.737639 0.055000
0.624859 0.775237 0.055000
0.701049 0.804371 0.055000
0.789960 0.828207 0.055000
0.890878 0.841847 0.055000
1.000000 0.848018 0.054999
0.000000 0.352656 0.055000
0.053171 0.355787 0.055000
0.104220 0.366789 0.055000
0.152199 0.384286 0.055000
0.196519 0.408187 0.055000
0.236201 0.436876 0.055000
0.273292 0.469200 0.055000
0.303198 0.507160 0.055000
0.333547 0.547226 0.055000
0.361964 0.592054 0.055000
0.394545 0.636094 0.055000
0.428258 0.682915 0.055000
0.469200 0.726708 0.055000
0.525384 0.765932 0.055000
0.590220 0.802267 0.055000
0.672490 0.831169 0.055000
0.769237 0.855160 0.055001
0.879902 0.867866 0.055000
1.000000 0.873670 0.055003
0.000000 0.416015 0.055000
0.044087 0.419181 0.055000
0.086690 0.429463 0.055000
0.127334 0.445360 0.055000
0.165749 0.467343 0.055000
0.201048 0.494346 0.055000
0.234068 0.525384 0.055000
0.262361 0.561936 0.055000
0.292064 0.598710 0.055000
0.321909 0.640036 0.055000
0.355337 0.681120 0.055000
0.392053 0.723827 0.055000
0.436876 0.763799 0.055000
0.494346 0.798952 0.055000
0.562199 0.832125 0.055000
0.649178 0.858622 0.055000
0.751884 0.880709 0.055000
0.870704 0.892369 0.055000
1.000000 0.898360 0.054998
0.000000 0.493382 0.055000
0.035541 0.496300 0.055000
0.070325 0.505890 0.055000
0.104092 0.519691 0.055000
0.137087 0.538679 0.055000
0.167874 0.562199 0.055000
0.197734 0.590220 0.055000
0.224763 0.624859 0.055000
0.254599 0.658587 0.055000
0.285590 0.694367 0.055000
0.320022 0.731266 0.055000
0.360069 0.768918 0.055000
0.408187 0.803481 0.055000
0.467345 0.834251 0.055000
0.538678 0.862913 0.055000
0.629326 0.885770 0.055000
0.737425 0.905119 0.055000
0.862887 0.915233 0.055000
1.000000 0.920554 0.055003
0.000000 0.590951 0.055000
0.029158 0.593344 0.055000
0.058029 0.601478 0.055000
0.086348 0.612722 0.055000
0.114230 0.629326 0.055000
0.141379 0.649179 0.055000
0.168831 0.672491 0.055000
0.195629 0.701049 0.055000
0.225119 0.729225 0.055000
0.256079 0.759626 0.055000
0.291889 0.788901 0.055000
0.334075 0.819562 0.055000
0.384286 0.847801 0.055000
0.445361 0.872667 0.055000
0.519691 0.895908 0.055000
0.612721 0.913651 0.055000
0.725463 0.929153 0.055000
0.856330 0.937366 0.055000
1.000000 0.941621 0.055000
0.000000 0.710100 0.055000
0.023760 0.711636 0.055000
0.047286 0.717299 0.055000
0.070847 0.725462 0.055000
0.094881 0.737424 0.055000
0.119290 0.751887 0.055000
0.144841 0.769233 0.055001
0.171793 0.789959 0.055000
0.201003 0.810282 0.055000
0.232978 0.832325 0.055000
0.270184 0.853786 0.055000
0.314290 0.875461 0.055000
0.366790 0.895780 0.055000
0.429462 0.913310 0.055000
0.505890 0.929675 0.055000
0.601477 0.941971 0.055000
0.717301 0.952715 0.055000
0.852113 0.958421 0.055000
1.000000 0.961909 0.054996
0.000000 0.847808 0.055000
0.020463 0.848604 0.055000
0.041578 0.852116 0.055000
0.062633 0.856333 0.055000
0.084766 0.862886 0.055000
0.107631 0.870703 0.055001
0.132134 0.879890 0.054999
0.158152 0.890877 0.054999
0.187825 0.902078 0.055000
0.220267 0.913167 0.055000
0.257430 0.924598 0.055000
0.302746 0.936163 0.055000
0.355787 0.946828 0.055000
0.419182 0.955913 0.055000
0.496300 0.964458 0.055000
0.593344 0.970843 0.055000
0.711636 0.976239 0.055000
0.848603 0.979537 0.055000
1.000000 0.981000 0.055003
0.000000 1.000000 0.055000
0.018999 1.000000 0.055000
0.038091 1.000000 0.054996
0.058378 1.000000 0.055001
0.079445 1.000000 0.055003
0.101638 1.000000 0.054997
0.126342 1.000000 0.055000
0.151976 1.000000 0.055001
0.181818 1.000000 0.055000
0.214813 1.000000 0.055000
0.252457 1.000000 0.055000
0.298533 1.000000 0.055000
0.352657 1.000000 0.055000
0.416015 1.000000 0.055000
0.493381 1.000000 0.055000
0.590952 1.000000 0.055000
0.710099 1.000000 0.055000
0.847810 1.000000 0.054999
1.000000 1.000000 0.054994
0.000000 0.000000 0.110002
0.152184 0.000000 0.110000
0.289903 0.000000 0.110000
0.409047 0.000000 0.110000
0.506619 0.000000 0.110000
0.583984 0.000000 0.110000
0.647343 0.000000 0.110000
0.701467 0.000000 0.110000
0.747544 0.000000 0.110000
0.785186 0.000000 0.110000
0.818178 0.000000 0.110000
0.848031 0.000000 0.110004
0.873662 0.000000 0.109996
0.898359 0.000000 0.110002
0.920550 0.000000 0.109996
0.941625 0.000000 0.109995
0.961913 0.000000 0.110006