# vtk DataFile Version 2.0
Mesh for Fierro
ASCII 
DATASET UNSTRUCTURED_GRID

POINTS 2527 float
0.000000 0.000000 0.000000
0.075819 0.000000 0.000000
0.150139 0.000000 0.000000
0.222967 0.000000 0.000000
0.293450 0.000000 0.000000
0.362036 0.000000 0.000000
0.427128 0.000000 0.000000
0.486968 0.000000 0.000000
0.543820 0.000000 0.000000
0.598511 0.000000 0.000000
0.650098 0.000000 0.000000
0.698469 0.000000 0.000000
0.744998 0.000000 0.000000
0.790614 0.000000 0.000000
0.834957 0.000000 0.000000
0.877820 0.000000 0.000000
0.919027 0.000000 0.000000
0.959656 0.000000 0.000000
1.000000 0.000000 0.000000
0.000000 0.040343 0.000000
0.075552 0.040652 0.000000
0.149653 0.041429 0.000000
0.222248 0.042773 0.000000
0.292549 0.044526 0.000000
0.361017 0.046766 0.000000
0.425715 0.049258 0.000000
0.485585 0.052079 0.000000
0.542422 0.055090 0.000000
0.596959 0.058079 0.000000
0.648764 0.061174 0.000000
0.697119 0.064123 0.000000
0.743488 0.066964 0.000000
0.789423 0.069468 0.000000
0.833958 0.071662 0.000000
0.877003 0.073449 0.000000
0.918420 0.074756 0.000000
0.959347 0.075552 0.000000
1.000000 0.075819 0.000000
0.000000 0.080973 0.000000
0.074756 0.081580 0.000000
0.148075 0.083087 0.000000
0.219938 0.085705 0.000000
0.289564 0.089100 0.000000
0.357495 0.093497 0.000000
0.422117 0.098404 0.000000
0.481410 0.103950 0.000000
0.537889 0.109820 0.000000
0.592564 0.115701 0.000000
0.644280 0.121642 0.000000
0.692895 0.127415 0.000000
0.739770 0.132995 0.000000
0.785978 0.137815 0.000000
0.831125 0.142050 0.000000
0.874777 0.145551 0.000000
0.916913 0.148075 0.000000
0.958570 0.149653 0.000000
1.000000 0.150139 0.000000
0.000000 0.122180 0.000000
0.073449 0.122997 0.000000
0.145551 0.125223 0.000000
0.216237 0.128967 0.000000
0.284802 0.133956 0.000000
0.351971 0.140217 0.000000
0.415879 0.147310 0.000000
0.474589 0.155489 0.000000
0.530737 0.163880 0.000000
0.585245 0.172531 0.000000
0.637213 0.181284 0.000000
0.686043 0.189594 0.000000
0.733223 0.197811 0.000000
0.780294 0.204922 0.000000
0.826382 0.211109 0.000000
0.871033 0.216237 0.000000
0.914295 0.219938 0.000000
0.957226 0.222248 0.000000
1.000000 0.222967 0.000000
0.000000 0.165043 0.000000
0.071662 0.166042 0.000000
0.142050 0.168875 0.000000
0.211109 0.173618 0.000000
0.278290 0.179909 0.000000
0.344204 0.187819 0.000000
0.407464 0.197004 0.000000
0.465183 0.207345 0.000000
0.520847 0.218028 0.000000
0.575299 0.229175 0.000000
0.627426 0.240106 0.000000
0.676676 0.250739 0.000000
0.724743 0.261293 0.000000
0.772637 0.270377 0.000000
0.820091 0.278290 0.000000
0.866044 0.284802 0.000000
0.910900 0.289564 0.000000
0.955473 0.292549 0.000000
1.000000 0.293450 0.000000
0.000000 0.209386 0.000000
0.069468 0.210577 0.000000
0.137815 0.214022 0.000000
0.204922 0.219706 0.000000
0.270377 0.227363 0.000000
0.334785 0.236890 0.000000
0.396793 0.247760 0.000000
0.453682 0.259860 0.000000
0.508667 0.272629 0.000000
0.562975 0.285745 0.000000
0.615601 0.299127 0.000000
0.665037 0.311711 0.000000
0.713620 0.323999 0.000000
0.763110 0.334785 0.000000
0.812181 0.344204 0.000000
0.859783 0.351971 0.000000
0.906503 0.357495 0.000000
0.953234 0.361017 0.000000
1.000000 0.362036 0.000000
0.000000 0.255002 0.000000
0.066964 0.256512 0.000000
0.132995 0.260230 0.000000
0.197811 0.266777 0.000000
0.261293 0.275257 0.000000
0.323999 0.286380 0.000000
0.385167 0.298771 0.000000
0.440605 0.312618 0.000000
0.494783 0.327388 0.000000
0.548941 0.342100 0.000000
0.601725 0.357246 0.000000
0.651978 0.371832 0.000000
0.701229 0.385167 0.000000
0.752240 0.396793 0.000000
0.802996 0.407464 0.000000
0.852690 0.415879 0.000000
0.901596 0.422117 0.000000
0.950741 0.425715 0.000000
1.000000 0.427128 0.000000
0.000000 0.301531 0.000000
0.064123 0.302881 0.000000
0.127415 0.307105 0.000000
0.189594 0.313957 0.000000
0.250739 0.323324 0.000000
0.311711 0.334963 0.000000
0.371832 0.348022 0.000000
0.425898 0.362752 0.000000
0.479437 0.378211 0.000000
0.533556 0.394288 0.000000
0.586247 0.410311 0.000000
0.637248 0.425898 0.000000
0.687382 0.440605 0.000000
0.740140 0.453682 0.000000
0.792655 0.465183 0.000000
0.844511 0.474589 0.000000
0.896050 0.481410 0.000000
0.947921 0.485585 0.000000
1.000000 0.486968 0.000000
0.000000 0.349902 0.000000
0.061174 0.351236 0.000000
0.121642 0.355720 0.000000
0.181284 0.362787 0.000000
0.240106 0.372574 0.000000
0.299127 0.384399 0.000000
0.357246 0.398275 0.000000
0.410311 0.413753 0.000000
0.463362 0.429614 0.000000
0.517006 0.446530 0.000000
0.570386 0.463362 0.000000
0.621789 0.479437 0.000000
0.672612 0.494783 0.000000
0.727371 0.508667 0.000000
0.781972 0.520847 0.000000
0.836120 0.530737 0.000000
0.890180 0.537889 0.000000
0.944910 0.542422 0.000000
1.000000 0.543820 0.000000
0.000000 0.401489 0.000000
0.058079 0.403041 0.000000
0.115701 0.407436 0.000000
0.172531 0.414755 0.000000
0.229175 0.424701 0.000000
0.285745 0.437025 0.000000
0.342100 0.451059 0.000000
0.394288 0.466444 0.000000
0.446530 0.482994 0.000000
0.500000 0.500000 0.000000
0.553470 0.517006 0.000000
0.605712 0.533556 0.000000
0.657900 0.548941 0.000000
0.714255 0.562975 0.000000
0.770825 0.575299 0.000000
0.827469 0.585245 0.000000
0.884299 0.592564 0.000000
0.941920 0.596959 0.000000
1.000000 0.598511 0.000000
0.000000 0.456180 0.000000
0.055090 0.457578 0.000000
0.109820 0.462111 0.000000
0.163880 0.469263 0.000000
0.218028 0.479153 0.000000
0.272629 0.491333 0.000000
0.327388 0.505217 0.000000
0.378211 0.520563 0.000000
0.429614 0.536638 0.000000
0.482994 0.553470 0.000000
0.536638 0.570386 0.000000
0.589689 0.586247 0.000000
0.642754 0.601725 0.000000
0.700873 0.615601 0.000000
0.759894 0.627426 0.000000
0.818716 0.637213 0.000000
0.878358 0.644280 0.000000
0.938826 0.648764 0.000000
1.000000 0.650098 0.000000
0.000000 0.513032 0.000000
0.052079 0.514415 0.000000
0.103950 0.518590 0.000000
0.155489 0.525411 0.000000
0.207345 0.534817 0.000000
0.259860 0.546318 0.000000
0.312618 0.559395 0.000000
0.362752 0.574102 0.000000
0.413753 0.589689 0.000000
0.466444 0.605712 0.000000
0.520563 0.621789 0.000000
0.574102 0.637248 0.000000
0.628168 0.651978 0.000000
0.688289 0.665037 0.000000
0.749261 0.676676 0.000000
0.810406 0.686043 0.000000
0.872585 0.692895 0.000000
0.935876 0.697119 0.000000
1.000000 0.698469 0.000000
0.000000 0.572872 0.000000
0.049258 0.574285 0.000000
0.098404 0.577883 0.000000
0.147310 0.584121 0.000000
0.197004 0.592536 0.000000
0.247760 0.603207 0.000000
0.298771 0.614833 0.000000
0.348022 0.628168 0.000000
0.398275 0.642754 0.000000
0.451059 0.657900 0.000000
0.505217 0.672612 0.000000
0.559395 0.687382 0.000000
0.614833 0.701229 0.000000
0.676001 0.713620 0.000000
0.738707 0.724743 0.000000
0.802189 0.733223 0.000000
0.867005 0.739770 0.000000
0.933035 0.743488 0.000000
1.000000 0.744998 0.000000
0.000000 0.637964 0.000000
0.046766 0.638983 0.000000
0.093497 0.642505 0.000000
0.140217 0.648029 0.000000
0.187819 0.655796 0.000000
0.236890 0.665215 0.000000
0.286380 0.676001 0.000000
0.334963 0.688289 0.000000
0.384399 0.700873 0.000000
0.437025 0.714255 0.000000
0.491333 0.727371 0.000000
0.546318 0.740140 0.000000
0.603207 0.752240 0.000000
0.665215 0.763110 0.000000
0.729623 0.772637 0.000000
0.795078 0.780294 0.000000
0.862185 0.785978 0.000000
0.930532 0.789423 0.000000
1.000000 0.790614 0.000000
0.000000 0.706550 0.000000
0.044526 0.707451 0.000000
0.089100 0.710436 0.000000
0.133956 0.715198 0.000000
0.179909 0.721710 0.000000
0.227363 0.729623 0.000000
0.275257 0.738707 0.000000
0.323324 0.749261 0.000000
0.372574 0.759894 0.000000
0.424701 0.770825 0.000000
0.479153 0.781972 0.000000
0.534817 0.792655 0.000000
0.592536 0.802996 0.000000
0.655796 0.812181 0.000000
0.721710 0.820091 0.000000
0.788891 0.826382 0.000000
0.857950 0.831125 0.000000
0.928337 0.833958 0.000000
1.000000 0.834957 0.000000
0.000000 0.777033 0.000000
0.042773 0.777752 0.000000
0.085705 0.780062 0.000000
0.128967 0.783763 0.000000
0.173618 0.788891 0.000000
0.219706 0.795078 0.000000
0.266777 0.802189 0.000000
0.313957 0.810406 0.000000
0.362787 0.818716 0.000000
0.414755 0.827469 0.000000
0.469263 0.836120 0.000000
0.525411 0.844511 0.000000
0.584121 0.852690 0.000000
0.648029 0.859783 0.000000
0.715198 0.866044 0.000000
0.783763 0.871033 0.000000
0.854449 0.874777 0.000000
0.926551 0.877003 0.000000
1.000000 0.877820 0.000000
0.000000 0.849861 0.000000
0.041429 0.850347 0.000000
0.083087 0.851925 0.000000
0.125223 0.854449 0.000000
0.168875 0.857950 0.000000
0.214022 0.862185 0.000000
0.260230 0.867005 0.000000
0.307105 0.872585 0.000000
0.355720 0.878358 0.000000
0.407436 0.884299 0.000000
0.462111 0.890180 0.000000
0.518590 0.896050 0.000000
0.577883 0.901596 0.000000
0.642505 0.906503 0.000000
0.710436 0.910900 0.000000
0.780062 0.914295 0.000000
0.851925 0.916913 0.000000
0.925244 0.918420 0.000000
1.000000 0.919027 0.000000
0.000000 0.924180 0.000000
0.040652 0.924448 0.000000
0.081580 0.925244 0.000000
0.122997 0.926551 0.000000
0.166042 0.928337 0.000000
0.210577 0.930532 0.000000
0.256512 0.933035 0.000000
0.302881 0.935876 0.000000
0.351236 0.938826 0.000000
0.403041 0.941920 0.000000
0.457578 0.944910 0.000000
0.514415 0.947921 0.000000
0.574285 0.950741 0.000000
0.638983 0.953234 0.000000
0.707451 0.955473 0.000000
0.777752 0.957226 0.000000
0.850347 0.958570 0.000000
0.924448 0.959347 0.000000
1.000000 0.959656 0.000000
0.000000 1.000000 0.000000
0.040343 1.000000 0.000000
0.080973 1.000000 0.000000
0.122180 1.000000 0.000000
0.165043 1.000000 0.000000
0.209386 1.000000 0.000000
0.255002 1.000000 0.000000
0.301531 1.000000 0.000000
0.349902 1.000000 0.000000
0.401489 1.000000 0.000000
0.456180 1.000000 0.000000
0.513032 1.000000 0.000000
0.572872 1.000000 0.000000
0.637964 1.000000 0.000000
0.706550 1.000000 0.000000
0.777033 1.000000 0.000000
0.849861 1.000000 0.000000
0.924180 1.000000 0.000000
1.000000 1.000000 0.000000
0.000000 0.000000 0.055000
0.075819 0.000000 0.055000
0.150139 0.000000 0.055000
0.222967 0.000000 0.055000
0.293450 0.000000 0.055000
[...]
POINT_DATA 2527 
VECTORS pos float 
0.000000 0.000000 0.000000
0.075819 0.000000 0.000000
0.150139 0.000000 0.000000
0.222967 0.000000 0.000000
0.293450 0.000000 0.000000
0.362036 0.000000 0.000000
0.427128 0.000000 0.000000
0.486968 0.000000 0.000000
0.543820 0.000000 0.000000
0.598511 0.000000 0.000000
0.650098 0.000000 0.000000
0.698469 0.000000 0.000000
0.744998 0.000000 0.000000
0.790614 0.000000 0.000000
0.834957 0.000000 0.000000
0.877820 0.000000 0.000000
0.919027 0.000000 0.000000
0.959656 0.000000 0.000000
1.000000 0.000000 0.000000
0.000000 0.040343 0.000000
0.075552 0.040652 0.000000
0.149653 0.041429 0.000000
0.222248 0.042773 0.000000
0.292549 0.044526 0.000000
0.361017 0.046766 0.000000
0.425715 0.049258 0.000000
0.485585 0.052079 0.000000
0.542422 0.055090 0.000000
0.596959 0.058079 0.000000
0.648764 0.061174 0.000000
0.697119 0.064123 0.000000
0.743488 0.066964 0.000000
0.789423 0.069468 0.000000
0.833958 0.071662 0.000000
0.877003 0.073449 0.000000
0.918420 0.074756 0.000000
0.959347 0.075552 0.000000
1.000000 0.075819 0.000000
0.000000 0.080973 0.000000
0.074756 0.081580 0.000000
0.148075 0.083087 0.000000
0.219938 0.085705 0.000000
0.289564 0.089100 0.000000
0.357495 0.093497 0.000000
0.422117 0.098404 0.000000
0.481410 0.103950 0.000000
0.537889 0.109820 0.000000
0.592564 0.115701 0.000000
0.644280 0.121642 0.000000
0.692895 0.127415 0.000000
0.739770 0.132995 0.000000
0.785978 0.137815 0.000000
0.831125 0.142050 0.000000
0.874777 0.145551 0.000000
0.916913 0.148075 0.000000
0.958570 0.149653 0.000000
1.000000 0.150139 0.000000
0.000000 0.122180 0.000000
0.073449 0.122997 0.000000
0.145551 0.125223 0.000000
0.216237 0.128967 0.000000
0.284802 0.133956 0.000000
0.351971 0.140217 0.000000
0.415879 0.147310 0.000000
0.474589 0.155489 0.000000
0.530737 0.163880 0.000000
0.585245 0.172531 0.000000
0.637213 0.181284 0.000000
0.686043 0.189594 0.000000
0.733223 0.197811 0.000000
0.780294 0.204922 0.000000
0.826382 0.211109 0.000000
0.871033 0.216237 0.000000
0.914295 0.219938 0.000000
0.957226 0.222248 0.000000
1.000000 0.222967 0.000000
0.000000 0.165043 0.000000
0.071662 0.166042 0.000000
0.142050 0.168875 0.000000
0.211109 0.173618 0.000000
0.278290 0.179909 0.000000
0.344204 0.187819 0.000000
0.407464 0.197004 0.000000
0.465183 0.207345 0.000000
0.520847 0.218028 0.000000
0.575299 0.229175 0.000000
0.627426 0.240106 0.000000
0.676676 0.250739 0.000000
0.724743 0.261293 0.000000
0.772637 0.270377 0.000000
0.820091 0.278290 0.000000
0.866044 0.284802 0.000000
0.910900 0.289564 0.000000
0.955473 0.292549 0.000000
1.000000 0.293450 0.000000
0.000000 0.209386 0.000000
0.069468 0.210577 0.000000
0.137815 0.214022 0.000000
0.204922 0.219706 0.000000
0.270377 0.227363 0.000000
0.334785 0.236890 0.000000
0.396793 0.247760 0.000000
0.453682 0.259860 0.000000
0.508667 0.272629 0.000000
0.562975 0.285745 0.000000
0.615601 0.299127 0.000000
0.665037 0.311711 0.000000
0.713620 0.323999 0.000000
0.763110 0.334785 0.000000
0.812181 0.344204 0.000000
0.859783 0.351971 0.000000
0.906503 0.357495 0.000000
0.953234 0.361017 0.000000
1.000000 0.362036 0.000000
0.000000 0.255002 0.000000
0.066964 0.256512 0.000000
0.132995 0.260230 0.000000
0.197811 0.266777 0.000000
0.261293 0.275257 0.000000
0.323999 0.286380 0.000000
0.385167 0.298771 0.000000
0.440605 0.312618 0.000000
0.494783 0.327388 0.000000
0.548941 0.342100 0.000000
0.601725 0.357246 0.000000
0.651978 0.371832 0.000000
0.701229 0.385167 0.000000
0.752240 0.396793 0.000000
0.802996 0.407464 0.000000
0.852690 0.415879 0.000000
0.901596 0.422117 0.000000
0.950741 0.425715 0.000000
1.000000 0.427128 0.000000
0.000000 0.301531 0.000000
0.064123 0.302881 0.000000
0.127415 0.307105 0.000000
0.189594 0.313957 0.000000
0.250739 0.323324 0.000000
0.311711 0.334963 0.000000
0.371832 0.348022 0.000000
0.425898 0.362752 0.000000
0.479437 0.378211 0.000000
0.533556 0.394288 0.000000
0.586247 0.410311 0.000000
0.637248 0.425898 0.000000
0.687382 0.440605 0.000000
0.740140 0.453682 0.000000
0.792655 0.465183 0.000000
0.844511 0.474589 0.000000
0.896050 0.481410 0.000000
0.947921 0.485585 0.000000
1.000000 0.486968 0.000000
0.000000 0.349902 0.000000
0.061174 0.351236 0.000000
0.121642 0.355720 0.000000
0.181284 0.362787 0.000000
0.240106 0.372574 0.000000
0.299127 0.384399 0.000000
0.357246 0.398275 0.000000
0.410311 0.413753 0.000000
0.463362 0.429614 0.000000
0.517006 0.446530 0.000000
0.570386 0.463362 0.000000
0.621789 0.479437 0.000000
0.672612 0.494783 0.000000
0.727371 0.508667 0.000000
0.781972 0.520847 0.000000
0.836120 0.530737 0.000000
0.890180 0.537889 0.000000
0.944910 0.542422 0.000000
1.000000 0.543820 0.000000
0.000000 0.401489 0.000000
0.058079 0.403041 0.000000
0.115701 0.407436 0.000000
0.172531 0.414755 0.000000
0.229175 0.424701 0.000000
0.285745 0.437025 0.000000
0.342100 0.451059 0.000000
0.394288 0.466444 0.000000
0.446530 0.482994 0.000000
0.500000 0.500000 0.000000
0.553470 0.517006 0.000000
0.605712 0.533556 0.000000
0.657900 0.548941 0.000000
0.714255 0.562975 0.000000
0.770825 0.575299 0.000000
0.827469 0.585245 0.000000
0.884299 0.592564 0.000000
0.941920 0.596959 0.000000
1.000000 0.598511 0.000000
0.000000 0.456180 0.000000
0.055090 0.457578 0.000000
0.109820 0.462111 0.000000
0.163880 0.469263 0.000000
0.218028 0.479153 0.000000
0.272629 0.491333 0.000000
0.327388 0.505217 0.000000
0.378211 0.520563 0.000000
0.429614 0.536638 0.000000
0.482994 0.553470 0.000000
0.536638 0.570386 0.000000
0.589689 0.586247 0.000000
0.642754 0.601725 0.000000
0.700873 0.615601 0.000000
0.759894 0.627426 0.000000
0.818716 0.637213 0.000000
0.878358 0.644280 0.000000
0.938826 0.648764 0.000000
1.000000 0.650098 0.000000
0.000000 0.513032 0.000000
0.052079 0.514415 0.000000
0.103950 0.518590 0.000000
0.155489 0.525411 0.000000
0.207345 0.534817 0.000000
0.259860 0.546318 0.000000
0.312618 0.559395 0.000000
0.362752 0.574102 0.000000
0.413753 0.589689 0.000000
0.466444 0.605712 0.000000
0.520563 0.621789 0.000000
0.574102 0.637248 0.000000
0.628168 0.651978 0.000000
0.688289 0.665037 0.000000
0.749261 0.676676 0.000000
0.810406 0.686043 0.000000
0.872585 0.692895 0.000000
0.935876 0.697119 0.000000
1.000000 0.698469 0.000000
0.000000 0.572872 0.000000
0.049258 0.574285 0.000000
0.098404 0.577883 0.000000
0.147310 0.584121 0.000000
0.197004 0.592536 0.000000
0.247760 0.603207 0.000000
0.298771 0.614833 0.000000
0.348022 0.628168 0.000000
0.398275 0.642754 0.000000
0.451059 0.657900 0.000000
0.505217 0.672612 0.000000
0.559395 0.687382 0.000000
0.614833 0.701229 0.000000
0.676001 0.713620 0.000000
0.738707 0.724743 0.000000
0.802189 0.733223 0.000000
0.867005 0.739770 0.000000
0.933035 0.743488 0.000000
1.000000 0.744998 0.000000
0.000000 0.637964 0.000000
0.046766 0.638983 0.000000
0.093497 0.642505 0.000000
0.140217 0.648029 0.000000
0.187819 0.655796 0.000000
0.236890 0.665215 0.000000
0.286380 0.676001 0.000000
0.334963 0.688289 0.000000
0.384399 0.700873 0.000000
0.437025 0.714255 0.000000
0.491333 0.727371 0.000000
0.546318 0.740140 0.000000
0.603207 0.752240 0.000000
0.665215 0.763110 0.000000
0.729623 0.772637 0.000000
0.795078 0.780294 0.000000
0.862185 0.785978 0.000000
0.930532 0.789423 0.000000
1.000000 0.790614 0.000000
0.000000 0.706550 0.000000
0.044526 0.707451 0.000000
0.089100 0.710436 0.000000
0.133956 0.715198 0.000000
0.179909 0.721710 0.000000
0.227363 0.729623 0.000000
0.275257 0.738707 0.000000
0.323324 0.749261 0.000000
0.372574 0.759894 0.000000
0.424701 0.770825 0.000000
0.479153 0.781972 0.000000
0.534817 0.792655 0.000000
0.592536 0.802996 0.000000
0.655796 0.812181 0.000000
0.721710 0.820091 0.000000
0.788891 0.826382 0.000000
0.857950 0.831125 0.000000
0.928337 0.833958 0.000000
1.000000 0.834957 0.000000
0.000000 0.777033 0.000000
0.042773 0.777752 0.000000
0.085705 0.780062 0.000000
0.128967 0.783763 0.000000
0.173618 0.788891 0.000000
0.219706 0.795078 0.000000
0.266777 0.802189 0.000000
0.313957 0.810406 0.000000
0.362787 0.818716 0.000000
0.414755 0.827469 0.000000
0.469263 0.836120 0.000000
0.525411 0.844511 0.000000
0.584121 0.852690 0.000000
0.648029 0.859783 0.000000
0.715198 0.866044 0.000000
0.783763 0.871033 0.000000
0.854449 0.874777 0.000000
0.926551 0.877003 0.000000
1.000000 0.877820 0.000000
0.000000 0.849861 0.000000
0.041429 0.850347 0.000000
0.083087 0.851925 0.000000
0.125223 0.854449 0.000000
0.168875 0.857950 0.000000
0.214022 0.862185 0.000000
0.260230 0.867005 0.000000
0.307105 0.872585 0.000000
0.355720 0.878358 0.000000
0.407436 0.884299 0.000000
0.462111 0.890180 0.000000
0.518590 0.896050 0.000000
0.577883 0.901596 0.000000
0.642505 0.906503 0.000000
0.710436 0.910900 0.000000
0.780062 0.914295 0.000000
0.851925 0.916913 0.000000
0.925244 0.918420 0.000000
1.000000 0.919027 0.000000
0.000000 0.924180 0.000000
0.040652 0.924448 0.000000
0.081580 0.925244 0.000000
0.122997 0.926551 0.000000
0.166042 0.928337 0.000000
0.210577 0.930532 0.000000
0.256512 0.933035 0.000000
0.302881 0.935876 0.000000
0.351236 0.938826 0.000000
0.403041 0.941920 0.000000
0.457578 0.944910 0.000000
0.514415 0.947921 0.000000
0.574285 0.950741 0.000000
0.638983 0.953234 0.000000
0.707451 0.955473 0.000000
0.777752 0.957226 0.000000
0.850347 0.958570 0.000000
0.924448 0.959347 0.000000
1.000000 0.959656 0.000000
0.000000 1.000000 0.000000
0.040343 1.000000 0.000000
0.080973 1.000000 0.000000
0.122180 1.000000 0.000000
0.165043 1.000000 0.000000
0.209386 1.000000 0.000000
0.255002 1.000000 0.000000
0.301531 1.000000 0.000000
0.349902 1.000000 0.000000
0.401489 1.000000 0.000000
0.456180 1.000000 0.000000
0.513032 1.000000 0.000000
0.572872 1.000000 0.000000
0.637964 1.000000 0.000000
0.706550 1.000000 0.000000
0.777033 1.000000 0.000000
0.849861 1.000000 0.000000
0.924180 1.000000 0.000000
1.000000 1.000000 0.000000
0.000000 0.000000 0.055000
0.075819 0.000000 0.055000
0.150139 0.000000 0.055000
0.222967 0.000000 0.055000
0.293450 0.000000 0.055000
0.362036 0.000000 0.055000
0.427128 0.000000 0.055000
0.486968 0.000000 0.055000
0.543820 0.000000 0.055000
0.598511 0.000000 0.055000
0.650098 0.000000 0.055000
0.698469 0.000000 0.055000
0.744998 0.000000 0.055000
0.790614 0.000000 0.055000
0.834957 0.000000 0.055000
0.877820 0.000000 0.055000
0.919027 0.000000 0.055000
0.959656 0.000000 0.055000
1.000000 0.000000 0.055000
0.000000 0.040343 0.055000
0.075552 0.040652 0.055000
0.149653 0.041429 0.055000
0.222248 0.042773 0.055000
0.292549 0.044526 0.055000
0.361017 0.046766 0.055000
0.425715 0.049258 0.055000
0.485585 0.052079 0.055000
0.542422 0.055090 0.055000
0.596959 0.058079 0.055000
0.648764 0.061174 0.055000
0.697119 0.064123 0.055000
0.743488 0.066964 0.055000
0.789423 0.069468 0.055000
0.833958 0.071662 0.055000
0.877003 0.073449 0.055000
0.918420 0.074756 0.055000
0.959347 0.075552 0.055000
1.000000 0.075819 0.055000
0.000000 0.080973 0.055000
0.074756 0.081580 0.055000
0.148075 0.083087 0.055000
0.219938 0.085705 0.055000
0.289564 0.089100 0.055000
0.357495 0.093497 0.055000
0.422117 0.098404 0.055000
0.481410 0.103950 0.055000
0.537889 0.109820 0.055000
0.592564 0.115701 0.055000
0.644280 0.121642 0.055000
0.692895 0.127415 0.055000
0.739770 0.132995 0.055000
0.785978 0.137815 0.055000
0.831125 0.142050 0.055000
0.874777 0.145551 0.055000
0.916913 0.148075 0.055000
0.958570 0.149653 0.055000
1.000000 0.150139 0.055000
0.000000 0.122180 0.055000
0.073449 0.122997 0.055000
0.145551 0.125223 0.055000
0.216237 0.128967 0.055000
0.284802 0.133956 0.055000
0.351971 0.140217 0.055000
0.415879 0.147310 0.055000
0.474589 0.155489 0.055000
0.530737 0.163880 0.055000
0.585245 0.172531 0.055000
0.637213 0.181284 0.055000
0.686043 0.189594 0.055000
0.733223 0.197811 0.055000
0.780294 0.204922 0.055000
0.826382 0.211109 0.055000
0.871033 0.216237 0.055000
0.914295 0.219938 0.055000
0.957226 0.222248 0.055000
1.000000 0.222967 0.055000
0.000000 0.165043 0.055000
0.071662 0.166042 0.055000
0.142050 0.168875 0.055000
0.211109 0.173618 0.055000
0.278290 0.179909 0.055000
0.344204 0.187819 0.055000
0.407464 0.197004 0.055000
0.465183 0.207345 0.055000
0.520847 0.218028 0.055000
0.575299 0.229175 0.055000
0.627426 0.240106 0.055000
0.676676 0.250739 0.055000
0.724743 0.261293 0.055000
0.772637 0.270377 0.055000
0.820091 0.278290 0.055000
0.866044 0.284802 0.055000
0.910900 0.289564 0.055000
0.955473 0.292549 0.055000
1.000000 0.293450 0.055000
0.000000 0.209386 0.055000
0.069468 0.210577 0.055000
0.137815 0.214022 0.055000
0.204922 0.219706 0.055000
0.270377 0.227363 0.055000
0.334785 0.236890 0.055000
0.396793 0.247760 0.055000
0.453682 0.259860 0.055000
0.508667 0.272629 0.055000
0.562975 0.285745 0.055000
0.615601 0.299127 0.055000
0.665037 0.311711 0.055000
0.713620 0.323999 0.055000
0.763110 0.334785 0.055000
0.812181 0.344204 0.055000
0.859783 0.351971 0.055000
0.906503 0.357495 0.055000
0.953234 0.361017 0.055000
1.000000 0.362036 0.055000
0.000000 0.255002 0.055000
0.066964 0.256512 0.055000
0.132995 0.260230 0.055000
0.197811 0.266777 0.055000
0.261293 0.275257 0.055000
0.323999 0.286380 0.055000
0.385167 0.298771 0.055000
0.440605 0.312618 0.055000
0.494783 0.327388 0.055000
0.548941 0.342100 0.055000
0.601725 0.357246 0.055000
0.651978 0.371832 0.055000
0.701229 0.385167 0.055000
0.752240 0.396793 0.055000
0.802996 0.407464 0.055000
0.852690 0.415879 0.055000
0.901596 0.422117 0.055000
0.950741 0.425715 0.055000
1.000000 0.427128 0.055000
0.000000 0.301531 0.055000
0.064123 0.302881 0.055000
0.127415 0.307105 0.055000
0.189594 0.313957 0.055000
0.250739 0.323324 0.055000
0.311711 0.334963 0.055000
0.371832 0.348022 0.055000
0.425898 0.362752 0.055000
0.479437 0.378211 0.055000
0.533556 0.394288 0.055000
0.586247 0.410311 0.055000
0.637248 0.425898 0.055000
0.687382 0.440605 0.055000
0.740140 0.453682 0.055000
0.792655 0.465183 0.055000
0.844511 0.474589 0.055000
0.896050 0.481410 0.055000
0.947921 0.485585 0.055000
1.000000 0.486968 0.055000
0.000000 0.349902 0.055000
0.061174 0.351236 0.055000
0.121642 0.355720 0.055000
0.181284 0.362787 0.055000
0.240106 0.372574 0.055000
0.299127 0.384399 0.055000
0.357246 0.398275 0.055000
0.410311 0.413753 0.055000
0.463362 0.429614 0.055000
0.517006 0.446530 0.055000
0.570386 0.463362 0.055000
0.621789 0.479437 0.055000
0.672612 0.494783 0.055000
0.727371 0.508667 0.055000
0.781972 0.520847 0.055000
0.836120 0.530737 0.055000
0.890180 0.537889 0.055000
0.944910 0.542422 0.055000
1.000000 0.543820 0.055000
0.000000 0.401489 0.055000
0.058079 0.403041 0.055000
0.115701 0.407436 0.055000
0.172531 0.414755 0.055000
0.229175 0.424701 0.055000
0.285745 0.437025 0.055000
0.342100 0.451059 0.055000
0.394288 0.466444 0.055000
0.446530 0.482994 0.055000
0.500000 0.500000 0.055000
0.553470 0.517006 0.055000
0.605712 0.533556 0.055000
0.657900 0.548941 0.055000
0.714255 0.562975 0.055000
0.770825 0.575299 0.055000
0.827469 0.585245 0.055000
0.884299 0.592564 0.055000
0.941920 0.596959 0.055000
1.000000 0.598511 0.055000
0.000000 0.456180 0.055000
0.055090 0.457578 0.055000
0.109820 0.462111 0.055000
0.163880 0.469263 0.055000
0.218028 0.479153 0.055000
0.272629 0.491333 0.055000
0.327388 0.505217 0.055000
0.378211 0.520563 0.055000
0.429614 0.536638 0.055000
0.482994 0.553470 0.055000
0.536638 0.570386 0.055000
0.589689 0.586247 0.055000
0.642754 0.601725 0.055000
0.700873 0.615601 0.055000
0.759894 0.627426 0.055000
0.818716 0.637213 0.055000
0.878358 0.644280 0.055000
0.938826 0.648764 0.055000
1.000000 0.650098 0.055000
0.000000 0.513032 0.055000
0.052079 0.514415 0.055000
0.103950 0.518590 0.055000
0.155489 0.525411 0.055000
0.207345 0.534817 0.055000
0.259860 0.546318 0.055000
0.312618 0.559395 0.055000
0.362752 0.574102 0.055000
0.413753 0.589689 0.055000
0.466444 0.605712 0.055000
0.520563 0.621789 0.055000
0.574102 0.637248 0.055000
0.628168 0.651978 0.055000
0.688289 0.665037 0.055000
0.749261 0.676676 0.055000
0.810406 0.686043 0.055000
0.872585 0.692895 0.055000
0.935876 0.697119 0.055000
1.000000 0.698469 0.055000
0.000000 0.572872 0.055000
0.049258 0.574285 0.055000
0.098404 0.577883 0.055000
0.147310 0.584121 0.055000
0.197004 0.592536 0.055000
0.247760 0.603207 0.055000
0.298771 0.614833 0.055000
0.348022 0.628168 0.055000
0.398275 0.642754 0.055000
0.451059 0.657900 0.055000
0.505217 0.672612 0.055000
0.559395 0.687382 0.055000
0.614833 0.701229 0.055000
0.676001 0.713620 0.055000
0.738707 0.724743 0.055000
0.802189 0.733223 0.055000
0.867005 0.739770 0.055000
0.933035 0.743488 0.055000
1.000000 0.744998 0.055000
0.000000 0.637964 0.055000
0.046766 0.638983 0.055000
0.093497 0.642505 0.055000
0.140217 0.648029 0.055000
0.187819 0.655796 0.055000
0.236890 0.665215 0.055000
0.286380 0.676001 0.055000
0.334963 0.688289 0.055000
0.384399 0.700873 0.055000
0.437025 0.714255 0.055000
0.491333 0.727371 0.055000
0.546318 0.740140 0.055000
0.603207 0.752240 0.055000
0.665215 0.763110 0.055000
0.729623 0.772637 0.055000
0.795078 0.780294 0.055000
0.862185 0.785978 0.055000
0.930532 0.789423 0.055000
1.000000 0.790614 0.055000
0.000000 0.706550 0.055000
0.044526 0.707451 0.055000
0.089100 0.710436 0.055000
0.133956 0.715198 0.055000
0.179909 0.721710 0.055000
0.227363 0.729623 0.055000
0.275257 0.738707 0.055000
0.323324 0.749261 0.055000
0.372574 0.759894 0.055000
0.424701 0.770825 0.055000
0.479153 0.781972 0.055000
0.534817 0.792655 0.055000
0.592536 0.802996 0.055000
0.655796 0.812181 0.055000
0.721710 0.820091 0.055000
0.788891 0.826382 0.055000
0.857950 0.831125 0.055000
0.928337 0.833958 0.055000
1.000000 0.834957 0.055000
0.000000 0.777033 0.055000
0.042773 0.777752 0.055000
0.085705 0.780062 0.055000
0.128967 0.783763 0.055000
0.173618 0.788891 0.055000
0.219706 0.795078 0.055000
0.266777 0.802189 0.055000
0.313957 0.810406 0.055000
0.362787 0.818716 0.055000
0.414755 0.827469 0.055000
0.469263 0.836120 0.055000
0.525411 0.844511 0.055000
0.584121 0.852690 0.055000
0.648029 0.859783 0.055000
0.715198 0.866044 0.055000
0.783763 0.871033 0.055000
0.854449 0.874777 0.055000
0.926551 0.877003 0.055000
1.000000 0.877820 0.055000
0.000000 0.849861 0.055000
0.041429 0.850347 0.055000
0.083087 0.851925 0.055000
0.125223 0.854449 0.055000
0.168875 0.857950 0.055000
0.214022 0.862185 0.055000
0.260230 0.867005 0.055000
0.307105 0.872585 0.055000
0.355720 0.878358 0.055000
0.407436 0.884299 0.055000
0.462111 0.890180 0.055000
0.518590 0.896050 0.055000
0.577883 0.901596 0.055000
0.642505 0.906503 0.055000
0.710436 0.910900 0.055000
0.780062 0.914295 0.055000
0.851925 0.916913 0.055000
0.925244 0.918420 0.055000
1.000000 0.919027 0.055000
0.000000 0.924180 0.055000
0.040652 0.924448 0.055000
0.081580 0.925244 0.055000
0.122997 0.926551 0.055000
0.166042 0.928337 0.055000
0.210577 0.930532 0.055000
0.256512 0.933035 0.055000
0.302881 0.935876 0.055000
0.351236 0.938826 0.055000
0.403041 0.941920 0.055000
0.457578 0.944910 0.055000
0.514415 0.947921 0.055000
0.574285 0.950741 0.055000
0.638983 0.953234 0.055000
0.707451 0.955473 0.055000
0.777752 0.957226 0.055000
0.850347 0.958570 0.055000
0.924448 0.959347 0.055000
1.000000 0.959656 0.055000
0.000000 1.000000 0.055000
0.040343 1.000000 0.055000
0.080973 1.000000 0.055000
0.122180 1.000000 0.055000
0.165043 1.000000 0.055000
0.209386 1.000000 0.055000
0.255002 1.000000 0.055000
0.301531 1.000000 0.055000
0.349902 1.000000 0.055000
0.401489 1.000000 0.055000
0.456180 1.000000 0.055000
0.513032 1.000000 0.055000
0.572872 1.000000 0.055000
0.637964 1.000000 0.055000
0.706550 1.000000 0.055000
0.777033 1.000000 0.055000
0.849861 1.000000 0.055000
0.924180 1.000000 0.055000
1.000000 1.000000 0.055000
0.000000 0.000000 0.110000
0.075819 0.000000 0.110000
0.150139 0.000000 0.110000
0.222967 0.000000 0.110000
0.293450 0.000000 0.110000
0.362036 0.000000 0.110000
0.427128 0.000000 0.110000
0.486968 0.000000 0.110000
0.543820 0.000000 0.110000
0.598511 0.000000 0.110000
0.650098 0.000000 0.110000
0.698469 0.000000 0.110000
0.744998 0.000000 0.110000
0.790614 0.000000 0.110000
0.834957 0.000000 0.110000
0.877820 0.000000 0.110000
0.919027 0.000000 0.110000