# vtk DataFile Version 2.0
Mesh for Fierro
ASCII 
DATASET UNSTRUCTURED_GRID

POINTS 2527 float
0.000000 0.000000 0.000000
0.466120 0.000000 0.000000
0.737213 0.000000 0.000000
0.798758 0.000000 0.000000
0.856940 0.000000 0.000000
0.885951 0.000000 0.000000
0.905861 0.000000 0.000000
0.920904 0.000000 0.000000
0.933716 0.000000 0.000000
0.943811 0.000000 0.000000
0.952266 0.000000 0.000000
0.959468 0.000000 0.000000
0.965435 0.000000 0.000000
0.970988 0.000000 0.000000
0.976342 0.000000 0.000000
0.981965 0.000000 0.000000
0.987924 0.000000 0.000000
0.993966 0.000000 0.000000
1.000000 0.000000 0.000000
0.000000 0.006030 0.000000
0.466013 0.007468 0.000000
0.727675 0.027888 0.000000
0.793559 0.050604 0.000000
0.851822 0.071258 0.000000
0.879282 0.126202 0.000000
0.898886 0.168836 0.000000
0.912699 0.211247 0.000000
0.923649 0.254381 0.000000
0.932661 0.298177 0.000000
0.940739 0.335946 0.000000
0.948005 0.373833 0.000000
0.954566 0.408338 0.000000
0.961727 0.432032 0.000000
0.969013 0.450455 0.000000
0.976840 0.460956 0.000000
0.984735 0.464884 0.000000
0.992517 0.465955 0.000000
1.000000 0.465843 0.000000
0.000000 0.012073 0.000000
0.464489 0.015226 0.000000
0.710285 0.050965 0.000000
0.786290 0.094159 0.000000
0.842791 0.140704 0.000000
0.865264 0.224542 0.000000
0.880685 0.298831 0.000000
0.891437 0.363016 0.000000
0.896894 0.427621 0.000000
0.899154 0.483641 0.000000
0.898994 0.532184 0.000000
0.897931 0.573314 0.000000
0.898401 0.609457 0.000000
0.904849 0.638970 0.000000
0.915442 0.664730 0.000000
0.930104 0.689282 0.000000
0.949085 0.710167 0.000000
0.972155 0.727705 0.000000
1.000000 0.737401 0.000000
0.000000 0.018043 0.000000
0.461033 0.023154 0.000000
0.689268 0.069902 0.000000
0.774038 0.128292 0.000000
0.822710 0.198723 0.000000
0.841010 0.288190 0.000000
0.845085 0.377428 0.000000
0.850350 0.440809 0.000000
0.841339 0.511415 0.000000
0.832234 0.567599 0.000000
0.820452 0.620667 0.000000
0.815706 0.665264 0.000000
0.814665 0.705181 0.000000
0.825687 0.735340 0.000000
0.843411 0.759109 0.000000
0.871703 0.774036 0.000000
0.905875 0.786277 0.000000
0.949353 0.793506 0.000000
1.000000 0.798768 0.000000
0.000000 0.023705 0.000000
0.450598 0.030989 0.000000
0.664733 0.084639 0.000000
0.759140 0.156561 0.000000
0.795653 0.244209 0.000000
0.813341 0.336389 0.000000
0.802076 0.432821 0.000000
0.801416 0.499932 0.000000
0.777237 0.569277 0.000000
0.758537 0.620688 0.000000
0.741484 0.663771 0.000000
0.732067 0.699961 0.000000
0.722582 0.732887 0.000000
0.734470 0.764854 0.000000
0.755755 0.795695 0.000000
0.801337 0.822688 0.000000
0.859272 0.842799 0.000000
0.928789 0.851886 0.000000
1.000000 0.857030 0.000000
0.000000 0.029064 0.000000
0.431912 0.038264 0.000000
0.638869 0.095124 0.000000
0.735299 0.174273 0.000000
0.764876 0.265468 0.000000
0.780486 0.359037 0.000000
0.759758 0.449137 0.000000
0.751946 0.517462 0.000000
0.717269 0.574563 0.000000
0.689025 0.621790 0.000000
0.661462 0.663916 0.000000
0.643470 0.704502 0.000000
0.630099 0.743275 0.000000
0.640965 0.780482 0.000000
0.663637 0.813302 0.000000
0.711765 0.841048 0.000000
0.775431 0.865237 0.000000
0.873663 0.879188 0.000000
1.000000 0.885863 0.000000
0.000000 0.034666 0.000000
0.408399 0.045454 0.000000
0.609429 0.101632 0.000000
0.705229 0.185361 0.000000
0.732866 0.277483 0.000000
0.743313 0.369815 0.000000
0.718192 0.454234 0.000000
0.697644 0.522196 0.000000
0.651272 0.569978 0.000000
0.619992 0.614273 0.000000
0.585088 0.649193 0.000000
0.567711 0.686440 0.000000
0.545727 0.718235 0.000000
0.550825 0.759840 0.000000
0.567226 0.802171 0.000000
0.622659 0.845140 0.000000
0.701035 0.880749 0.000000
0.831254 0.898844 0.000000
1.000000 0.905606 0.000000
0.000000 0.040605 0.000000
0.373696 0.051992 0.000000
0.573208 0.102039 0.000000
0.665319 0.184308 0.000000
0.699930 0.267943 0.000000
0.704489 0.356523 0.000000
0.686448 0.432313 0.000000
0.659579 0.495505 0.000000
0.615217 0.537706 0.000000
0.574547 0.580865 0.000000
0.534350 0.617914 0.000000
0.504485 0.659565 0.000000
0.477855 0.697593 0.000000
0.482511 0.751927 0.000000
0.500032 0.801420 0.000000
0.559295 0.850412 0.000000
0.636993 0.891541 0.000000
0.788688 0.912655 0.000000
1.000000 0.920738 0.000000
0.000000 0.047777 0.000000
0.335871 0.059264 0.000000
0.532137 0.100998 0.000000
0.620693 0.179525 0.000000
0.663744 0.258471 0.000000
0.663886 0.338524 0.000000
0.649202 0.414849 0.000000
0.617948 0.465644 0.000000
0.577252 0.503665 0.000000
0.536365 0.542392 0.000000
0.496338 0.577289 0.000000
0.462251 0.615213 0.000000
0.429927 0.651250 0.000000
0.425511 0.717320 0.000000
0.430672 0.777279 0.000000
0.488528 0.841285 0.000000
0.572048 0.896897 0.000000
0.745449 0.923639 0.000000
1.000000 0.933591 0.000000
0.000000 0.056227 0.000000
0.298310 0.067364 0.000000
0.483601 0.100828 0.000000
0.567646 0.167767 0.000000
0.620723 0.241521 0.000000
0.621791 0.310988 0.000000
0.614310 0.380052 0.000000
0.580824 0.425501 0.000000
0.542367 0.463625 0.000000
0.499994 0.500033 0.000000
0.457581 0.536381 0.000000
0.419155 0.574517 0.000000
0.385739 0.620001 0.000000
0.378215 0.689033 0.000000
0.379269 0.758480 0.000000
0.432308 0.832162 0.000000
0.516286 0.899165 0.000000
0.701533 0.932620 0.000000
1.000000 0.943836 0.000000
0.000000 0.066317 0.000000
0.254635 0.076390 0.000000
0.427879 0.103172 0.000000
0.511445 0.158680 0.000000
0.569259 0.222684 0.000000
0.574533 0.282695 0.000000
0.570062 0.348764 0.000000
0.537746 0.384768 0.000000
0.503625 0.422732 0.000000
0.463648 0.457611 0.000000
0.422722 0.496347 0.000000
0.382027 0.534362 0.000000
0.350794 0.585090 0.000000
0.336125 0.661496 0.000000
0.336214 0.741552 0.000000
0.379418 0.820562 0.000000
0.467738 0.898988 0.000000
0.663921 0.940781 0.000000
1.000000 0.952219 0.000000
0.000000 0.079127 0.000000
0.211284 0.087313 0.000000
0.363111 0.108541 0.000000
0.440820 0.149667 0.000000
0.499926 0.198606 0.000000
0.517442 0.248071 0.000000
0.522156 0.302368 0.000000
0.495541 0.340426 0.000000
0.465631 0.382053 0.000000
0.425491 0.419170 0.000000
0.384795 0.462276 0.000000
0.340430 0.504508 0.000000
0.313544 0.567751 0.000000
0.295541 0.643476 0.000000
0.300023 0.732078 0.000000
0.334745 0.815748 0.000000
0.426745 0.898045 0.000000
0.626375 0.948127 0.000000
1.000000 0.959328 0.000000
0.000000 0.094165 0.000000
0.168750 0.101079 0.000000
0.298704 0.119179 0.000000
0.377445 0.154791 0.000000
0.432807 0.197927 0.000000
0.449150 0.240248 0.000000
0.454115 0.281829 0.000000
0.432299 0.313596 0.000000
0.414894 0.350822 0.000000
0.380010 0.385718 0.000000
0.348752 0.429924 0.000000
0.302399 0.477860 0.000000
0.281809 0.545828 0.000000
0.256645 0.629941 0.000000
0.267221 0.722678 0.000000
0.294755 0.814729 0.000000
0.390509 0.898456 0.000000
0.591676 0.954656 0.000000
1.000000 0.965271 0.000000
0.000000 0.114038 0.000000
0.126342 0.120728 0.000000
0.224614 0.134749 0.000000
0.288320 0.158951 0.000000
0.336371 0.186597 0.000000
0.359013 0.219468 0.000000
0.369988 0.256657 0.000000
0.356537 0.295532 0.000000
0.338527 0.336100 0.000000
0.310950 0.378204 0.000000
0.282722 0.425441 0.000000
0.248060 0.482544 0.000000
0.240240 0.550812 0.000000
0.219497 0.640967 0.000000
0.235261 0.734506 0.000000
0.264588 0.825714 0.000000
0.361113 0.904954 0.000000
0.567909 0.961804 0.000000
1.000000 0.970881 0.000000
0.000000 0.142974 0.000000
0.071227 0.148108 0.000000
0.140655 0.157176 0.000000
0.198677 0.177345 0.000000
0.244214 0.204462 0.000000
0.265515 0.235252 0.000000
0.277318 0.267222 0.000000
0.267877 0.300029 0.000000
0.258454 0.336238 0.000000
0.241508 0.379231 0.000000
0.222741 0.430667 0.000000
0.198605 0.500054 0.000000
0.197921 0.567226 0.000000
0.186632 0.663629 0.000000
0.204446 0.755772 0.000000
0.240835 0.843518 0.000000
0.335338 0.915411 0.000000
0.549014 0.969049 0.000000
1.000000 0.976232 0.000000
0.000000 0.201236 0.000000
0.050661 0.206476 0.000000
0.094146 0.213814 0.000000
0.128297 0.225944 0.000000
0.156498 0.240835 0.000000
0.174276 0.264620 0.000000
0.185263 0.294764 0.000000
0.184237 0.334759 0.000000
0.179473 0.379368 0.000000
0.167899 0.432279 0.000000
0.158725 0.488566 0.000000
0.149604 0.559280 0.000000
0.154831 0.622558 0.000000
0.158956 0.711709 0.000000
0.177338 0.801291 0.000000
0.225927 0.871731 0.000000
0.310890 0.930175 0.000000
0.538550 0.976832 0.000000
1.000000 0.981897 0.000000
0.000000 0.263074 0.000000
0.027915 0.272191 0.000000
0.050988 0.289688 0.000000
0.069802 0.310910 0.000000
0.084614 0.335303 0.000000
0.095058 0.361110 0.000000
0.101566 0.390501 0.000000
0.101982 0.426735 0.000000
0.101094 0.467678 0.000000
0.100871 0.516285 0.000000
0.103096 0.572063 0.000000
0.108454 0.637008 0.000000
0.119216 0.701040 0.000000
0.134750 0.775378 0.000000
0.157156 0.859301 0.000000
0.213810 0.905835 0.000000
0.289715 0.949067 0.000000
0.534765 0.984717 0.000000
1.000000 0.987863 0.000000
0.000000 0.534145 0.000000
0.007515 0.533587 0.000000
0.015295 0.534540 0.000000
0.023157 0.538669 0.000000
0.030954 0.548858 0.000000
0.038207 0.567744 0.000000
0.045359 0.591420 0.000000
0.051891 0.626205 0.000000
0.059240 0.663672 0.000000
0.067372 0.701452 0.000000
0.076353 0.745382 0.000000
0.087308 0.788716 0.000000
0.101099 0.831095 0.000000
0.120756 0.873610 0.000000
0.148158 0.928789 0.000000
0.206457 0.949311 0.000000
0.272150 0.972068 0.000000
0.533692 0.992495 0.000000
1.000000 0.993941 0.000000
0.000000 1.000000 0.000000
0.006093 1.000000 0.000000
0.012187 1.000000 0.000000
0.018126 1.000000 0.000000
0.023747 1.000000 0.000000
0.029096 1.000000 0.000000
0.034726 1.000000 0.000000
0.040699 1.000000 0.000000
0.047788 1.000000 0.000000
0.056145 1.000000 0.000000
0.066352 1.000000 0.000000
0.079241 1.000000 0.000000
0.094300 1.000000 0.000000
0.114102 1.000000 0.000000
0.143000 1.000000 0.000000
0.201296 1.000000 0.000000
0.262956 1.000000 0.000000
0.534133 1.000000 0.000000
1.000000 1.000000 0.000000
0.000000 0.000000 0.055218
0.466199 0.000000 0.055065
0.736775 0.000000 0.055054
0.798609 0.000000 0.055010
0.856936 0.000000 0.054974
[...]
POINT_DATA 2527 
VECTORS pos float 
0.000000 0.000000 0.000000
0.466120 0.000000 0.000000
0.737213 0.000000 0.000000
0.798758 0.000000 0.000000
0.856940 0.000000 0.000000
0.885951 0.000000 0.000000
0.905861 0.000000 0.000000
0.920904 0.000000 0.000000
0.933716 0.000000 0.000000
0.943811 0.000000 0.000000
0.952266 0.000000 0.000000
0.959468 0.000000 0.000000
0.965435 0.000000 0.000000
0.970988 0.000000 0.000000
0.976342 0.000000 0.000000
0.981965 0.000000 0.000000
0.987924 0.000000 0.000000
0.993966 0.000000 0.000000
1.000000 0.000000 0.000000
0.000000 0.006030 0.000000
0.466013 0.007468 0.000000
0.727675 0.027888 0.000000
0.793559 0.050604 0.000000
0.851822 0.071258 0.000000
0.879282 0.126202 0.000000
0.898886 0.168836 0.000000
0.912699 0.211247 0.000000
0.923649 0.254381 0.000000
0.932661 0.298177 0.000000
0.940739 0.335946 0.000000
0.948005 0.373833 0.000000
0.954566 0.408338 0.000000
0.961727 0.432032 0.000000
0.969013 0.450455 0.000000
0.976840 0.460956 0.000000
0.984735 0.464884 0.000000
0.992517 0.465955 0.000000
1.000000 0.465843 0.000000
0.000000 0.012073 0.000000
0.464489 0.015226 0.000000
0.710285 0.050965 0.000000
0.786290 0.094159 0.000000
0.842791 0.140704 0.000000
0.865264 0.224542 0.000000
0.880685 0.298831 0.000000
0.891437 0.363016 0.000000
0.896894 0.427621 0.000000
0.899154 0.483641 0.000000
0.898994 0.532184 0.000000
0.897931 0.573314 0.000000
0.898401 0.609457 0.000000
0.904849 0.638970 0.000000
0.915442 0.664730 0.000000
0.930104 0.689282 0.000000
0.949085 0.710167 0.000000
0.972155 0.727705 0.000000
1.000000 0.737401 0.000000
0.000000 0.018043 0.000000
0.461033 0.023154 0.000000
0.689268 0.069902 0.000000
0.774038 0.128292 0.000000
0.822710 0.198723 0.000000
0.841010 0.288190 0.000000
0.845085 0.377428 0.000000
0.850350 0.440809 0.000000
0.841339 0.511415 0.000000
0.832234 0.567599 0.000000
0.820452 0.620667 0.000000
0.815706 0.665264 0.000000
0.814665 0.705181 0.000000
0.825687 0.735340 0.000000
0.843411 0.759109 0.000000
0.871703 0.774036 0.000000
0.905875 0.786277 0.000000
0.949353 0.793506 0.000000
1.000000 0.798768 0.000000
0.000000 0.023705 0.000000
0.450598 0.030989 0.000000
0.664733 0.084639 0.000000
0.759140 0.156561 0.000000
0.795653 0.244209 0.000000
0.813341 0.336389 0.000000
0.802076 0.432821 0.000000
0.801416 0.499932 0.000000
0.777237 0.569277 0.000000
0.758537 0.620688 0.000000
0.741484 0.663771 0.000000
0.732067 0.699961 0.000000
0.722582 0.732887 0.000000
0.734470 0.764854 0.000000
0.755755 0.795695 0.000000
0.801337 0.822688 0.000000
0.859272 0.842799 0.000000
0.928789 0.851886 0.000000
1.000000 0.857030 0.000000
0.000000 0.029064 0.000000
0.431912 0.038264 0.000000
0.638869 0.095124 0.000000
0.735299 0.174273 0.000000
0.764876 0.265468 0.000000
0.780486 0.359037 0.000000
0.759758 0.449137 0.000000
0.751946 0.517462 0.000000
0.717269 0.574563 0.000000
0.689025 0.621790 0.000000
0.661462 0.663916 0.000000
0.643470 0.704502 0.000000
0.630099 0.743275 0.000000
0.640965 0.780482 0.000000
0.663637 0.813302 0.000000
0.711765 0.841048 0.000000
0.775431 0.865237 0.000000
0.873663 0.879188 0.000000
1.000000 0.885863 0.000000
0.000000 0.034666 0.000000
0.408399 0.045454 0.000000
0.609429 0.101632 0.000000
0.705229 0.185361 0.000000
0.732866 0.277483 0.000000
0.743313 0.369815 0.000000
0.718192 0.454234 0.000000
0.697644 0.522196 0.000000
0.651272 0.569978 0.000000
0.619992 0.614273 0.000000
0.585088 0.649193 0.000000
0.567711 0.686440 0.000000
0.545727 0.718235 0.000000
0.550825 0.759840 0.000000
0.567226 0.802171 0.000000
0.622659 0.845140 0.000000
0.701035 0.880749 0.000000
0.831254 0.898844 0.000000
1.000000 0.905606 0.000000
0.000000 0.040605 0.000000
0.373696 0.051992 0.000000
0.573208 0.102039 0.000000
0.665319 0.184308 0.000000
0.699930 0.267943 0.000000
0.704489 0.356523 0.000000
0.686448 0.432313 0.000000
0.659579 0.495505 0.000000
0.615217 0.537706 0.000000
0.574547 0.580865 0.000000
0.534350 0.617914 0.000000
0.504485 0.659565 0.000000
0.477855 0.697593 0.000000
0.482511 0.751927 0.000000
0.500032 0.801420 0.000000
0.559295 0.850412 0.000000
0.636993 0.891541 0.000000
0.788688 0.912655 0.000000
1.000000 0.920738 0.000000
0.000000 0.047777 0.000000
0.335871 0.059264 0.000000
0.532137 0.100998 0.000000
0.620693 0.179525 0.000000
0.663744 0.258471 0.000000
0.663886 0.338524 0.000000
0.649202 0.414849 0.000000
0.617948 0.465644 0.000000
0.577252 0.503665 0.000000
0.536365 0.542392 0.000000
0.496338 0.577289 0.000000
0.462251 0.615213 0.000000
0.429927 0.651250 0.000000
0.425511 0.717320 0.000000
0.430672 0.777279 0.000000
0.488528 0.841285 0.000000
0.572048 0.896897 0.000000
0.745449 0.923639 0.000000
1.000000 0.933591 0.000000
0.000000 0.056227 0.000000
0.298310 0.067364 0.000000
0.483601 0.100828 0.000000
0.567646 0.167767 0.000000
0.620723 0.241521 0.000000
0.621791 0.310988 0.000000
0.614310 0.380052 0.000000
0.580824 0.425501 0.000000
0.542367 0.463625 0.000000
0.499994 0.500033 0.000000
0.457581 0.536381 0.000000
0.419155 0.574517 0.000000
0.385739 0.620001 0.000000
0.378215 0.689033 0.000000
0.379269 0.758480 0.000000
0.432308 0.832162 0.000000
0.516286 0.899165 0.000000
0.701533 0.932620 0.000000
1.000000 0.943836 0.000000
0.000000 0.066317 0.000000
0.254635 0.076390 0.000000
0.427879 0.103172 0.000000
0.511445 0.158680 0.000000
0.569259 0.222684 0.000000
0.574533 0.282695 0.000000
0.570062 0.348764 0.000000
0.537746 0.384768 0.000000
0.503625 0.422732 0.000000
0.463648 0.457611 0.000000
0.422722 0.496347 0.000000
0.382027 0.534362 0.000000
0.350794 0.585090 0.000000
0.336125 0.661496 0.000000
0.336214 0.741552 0.000000
0.379418 0.820562 0.000000
0.467738 0.898988 0.000000
0.663921 0.940781 0.000000
1.000000 0.952219 0.000000
0.000000 0.079127 0.000000
0.211284 0.087313 0.000000
0.363111 0.108541 0.000000
0.440820 0.149667 0.000000
0.499926 0.198606 0.000000
0.517442 0.248071 0.000000
0.522156 0.302368 0.000000
0.495541 0.340426 0.000000
0.465631 0.382053 0.000000
0.425491 0.419170 0.000000
0.384795 0.462276 0.000000
0.340430 0.504508 0.000000
0.313544 0.567751 0.000000
0.295541 0.643476 0.000000
0.300023 0.732078 0.000000
0.334745 0.815748 0.000000
0.426745 0.898045 0.000000
0.626375 0.948127 0.000000
1.000000 0.959328 0.000000
0.000000 0.094165 0.000000
0.168750 0.101079 0.000000
0.298704 0.119179 0.000000
0.377445 0.154791 0.000000
0.432807 0.197927 0.000000
0.449150 0.240248 0.000000
0.454115 0.281829 0.000000
0.432299 0.313596 0.000000
0.414894 0.350822 0.000000
0.380010 0.385718 0.000000
0.348752 0.429924 0.000000
0.302399 0.477860 0.000000
0.281809 0.545828 0.000000
0.256645 0.629941 0.000000
0.267221 0.722678 0.000000
0.294755 0.814729 0.000000
0.390509 0.898456 0.000000
0.591676 0.954656 0.000000
1.000000 0.965271 0.000000
0.000000 0.114038 0.000000
0.126342 0.120728 0.000000
0.224614 0.134749 0.000000
0.288320 0.158951 0.000000
0.336371 0.186597 0.000000
0.359013 0.219468 0.000000
0.369988 0.256657 0.000000
0.356537 0.295532 0.000000
0.338527 0.336100 0.000000
0.310950 0.378204 0.000000
0.282722 0.425441 0.000000
0.248060 0.482544 0.000000
0.240240 0.550812 0.000000
0.219497 0.640967 0.000000
0.235261 0.734506 0.000000
0.264588 0.825714 0.000000
0.361113 0.904954 0.000000
0.567909 0.961804 0.000000
1.000000 0.970881 0.000000
0.000000 0.142974 0.000000
0.071227 0.148108 0.000000
0.140655 0.157176 0.000000
0.198677 0.177345 0.000000
0.244214 0.204462 0.000000
0.265515 0.235252 0.000000
0.277318 0.267222 0.000000
0.267877 0.300029 0.000000
0.258454 0.336238 0.000000
0.241508 0.379231 0.000000
0.222741 0.430667 0.000000
0.198605 0.500054 0.000000
0.197921 0.567226 0.000000
0.186632 0.663629 0.000000
0.204446 0.755772 0.000000
0.240835 0.843518 0.000000
0.335338 0.915411 0.000000
0.549014 0.969049 0.000000
1.000000 0.976232 0.000000
0.000000 0.201236 0.000000
0.050661 0.206476 0.000000
0.094146 0.213814 0.000000
0.128297 0.225944 0.000000
0.156498 0.240835 0.000000
0.174276 0.264620 0.000000
0.185263 0.294764 0.000000
0.184237 0.334759 0.000000
0.179473 0.379368 0.000000
0.167899 0.432279 0.000000
0.158725 0.488566 0.000000
0.149604 0.559280 0.000000
0.154831 0.622558 0.000000
0.158956 0.711709 0.000000
0.177338 0.801291 0.000000
0.225927 0.871731 0.000000
0.310890 0.930175 0.000000
0.538550 0.976832 0.000000
1.000000 0.981897 0.000000
0.000000 0.263074 0.000000
0.027915 0.272191 0.000000
0.050988 0.289688 0.000000
0.069802 0.310910 0.000000
0.084614 0.335303 0.000000
0.095058 0.361110 0.000000
0.101566 0.390501 0.000000
0.101982 0.426735 0.000000
0.101094 0.467678 0.000000
0.100871 0.516285 0.000000
0.103096 0.572063 0.000000
0.108454 0.637008 0.000000
0.119216 0.701040 0.000000
0.134750 0.775378 0.000000
0.157156 0.859301 0.000000
0.213810 0.905835 0.000000
0.289715 0.949067 0.000000
0.534765 0.984717 0.000000
1.000000 0.987863 0.000000
0.000000 0.534145 0.000000
0.007515 0.533587 0.000000
0.015295 0.534540 0.000000
0.023157 0.538669 0.000000
0.030954 0.548858 0.000000
0.038207 0.567744 0.000000
0.045359 0.591420 0.000000
0.051891 0.626205 0.000000
0.059240 0.663672 0.000000
0.067372 0.701452 0.000000
0.076353 0.745382 0.000000
0.087308 0.788716 0.000000
0.101099 0.831095 0.000000
0.120756 0.873610 0.000000
0.148158 0.928789 0.000000
0.206457 0.949311 0.000000
0.272150 0.972068 0.000000
0.533692 0.992495 0.000000
1.000000 0.993941 0.000000
0.000000 1.000000 0.000000
0.006093 1.000000 0.000000
0.012187 1.000000 0.000000
0.018126 1.000000 0.000000
0.023747 1.000000 0.000000
0.029096 1.000000 0.000000
0.034726 1.000000 0.000000
0.040699 1.000000 0.000000
0.047788 1.000000 0.000000
0.056145 1.000000 0.000000
0.066352 1.000000 0.000000
0.079241 1.000000 0.000000
0.094300 1.000000 0.000000
0.114102 1.000000 0.000000
0.143000 1.000000 0.000000
0.201296 1.000000 0.000000
0.262956 1.000000 0.000000
0.534133 1.000000 0.000000
1.000000 1.000000 0.000000
0.000000 0.000000 0.055218
0.466199 0.000000 0.055065
0.736775 0.000000 0.055054
0.798609 0.000000 0.055010
0.856936 0.000000 0.054974
0.885968 0.000000 0.054950
0.905834 0.000000 0.055027
0.920828 0.000000 0.055009
0.933669 0.000000 0.055069
0.943884 0.000000 0.055106
0.952249 0.000000 0.055069
0.959350 0.000000 0.054930
0.965326 0.000000 0.054936
0.970943 0.000000 0.054887
0.976301 0.000000 0.055004
0.981928 0.000000 0.054940
0.987876 0.000000 0.055091
0.993940 0.000000 0.055113
1.000000 0.000000 0.055107
0.000000 0.006051 0.055211
0.466564 0.007513 0.055079
0.727623 0.028010 0.054998
0.793498 0.050568 0.054976
0.851846 0.071301 0.055016
0.879267 0.126216 0.054946
0.898937 0.168687 0.055027
0.912688 0.211476 0.055045
0.923619 0.254704 0.054999
0.932651 0.298617 0.054972
0.940767 0.336199 0.054999
0.948094 0.373609 0.054968
0.954599 0.408776 0.054956
0.961769 0.432423 0.055002
0.969027 0.451245 0.055008
0.976856 0.460977 0.055013
0.984728 0.464984 0.055048
0.992486 0.466721 0.055056
1.000000 0.466377 0.055068
0.000000 0.012090 0.055110
0.465151 0.015281 0.055045
0.710305 0.051064 0.054995
0.786271 0.094115 0.054993
0.842769 0.140735 0.054997
0.865285 0.224596 0.055011
0.880787 0.298779 0.054974
0.891473 0.363150 0.054978
0.896880 0.427974 0.054955
0.899144 0.483693 0.054973
0.899049 0.532097 0.055016
0.898095 0.573063 0.054990
0.898317 0.609478 0.055027
0.904796 0.638862 0.055003
0.915284 0.664686 0.055016
0.930062 0.689206 0.055021
0.948941 0.710278 0.055020
0.971992 0.727592 0.055001
1.000000 0.736760 0.055027
0.000000 0.018033 0.054933
0.461138 0.023150 0.054992
0.689206 0.069930 0.054974
0.774027 0.128291 0.054967
0.822710 0.198712 0.055016
0.841052 0.288297 0.055016
0.845165 0.377383 0.054996
0.850377 0.440792 0.055000
0.841300 0.511439 0.054990
0.832189 0.567682 0.055033
0.820527 0.620640 0.054996
0.815742 0.665217 0.055013
0.814615 0.705316 0.055005
0.825762 0.735388 0.054962
0.843509 0.759179 0.054977
0.871705 0.774047 0.054958
0.905899 0.786263 0.054967
0.949440 0.793505 0.054976
1.000000 0.798621 0.055003
0.000000 0.023672 0.054927
0.451091 0.030967 0.054971
0.664672 0.084671 0.054991
0.759172 0.156507 0.054992
0.795618 0.244262 0.054980
0.813335 0.336314 0.055011
0.802116 0.432809 0.054990
0.801434 0.499959 0.054997
0.777278 0.569349 0.054999
0.758537 0.620702 0.055012
0.741515 0.663738 0.054991
0.732158 0.699936 0.055007
0.722614 0.732773 0.055002
0.734543 0.764769 0.055028
0.755722 0.795611 0.054992
0.801310 0.822721 0.055021
0.859257 0.842781 0.055019
0.928687 0.851853 0.054995
1.000000 0.856928 0.054982
0.000000 0.029049 0.054862
0.432466 0.038236 0.054962
0.638898 0.095209 0.054999
0.735371 0.174238 0.054979
0.764782 0.265509 0.055017
0.780512 0.359018 0.055008
0.759786 0.449206 0.054966
0.751950 0.517503 0.055022
0.717274 0.574557 0.055012
0.689006 0.621801 0.054978
0.661468 0.663933 0.055000
0.643428 0.704480 0.055016
0.630091 0.743360 0.055007
0.640968 0.780510 0.054992
0.663687 0.813337 0.054997
0.711665 0.841036 0.054980
0.775428 0.865290 0.054990
0.873808 0.879289 0.054989
1.000000 0.885999 0.055060
0.000000 0.034646 0.054902
0.408620 0.045395 0.054931
0.609456 0.101637 0.055045
0.705322 0.185410 0.055007
0.732778 0.277376 0.055002
0.743349 0.369929 0.055003
0.718193 0.454134 0.054992
0.697655 0.522141 0.055001
0.651238 0.570021 0.054990
0.620020 0.614297 0.055018
0.585123 0.649179 0.055012
0.567662 0.686373 0.054985
0.545876 0.718166 0.055003
0.550836 0.759775 0.054975
0.567173 0.802108 0.054995
0.622578 0.845173 0.054998
0.701243 0.880775 0.055006
0.831252 0.899011 0.054993
1.000000 0.906024 0.054977
0.000000 0.040603 0.054940
0.373636 0.051918 0.054962
0.573120 0.101925 0.055013
0.665201 0.184240 0.055019
0.699933 0.267825 0.054986
0.704469 0.356553 0.055009
0.686412 0.432328 0.054998
0.659588 0.495489 0.054998
0.615225 0.537717 0.054991
0.574541 0.580853 0.055004
0.534356 0.617908 0.055004
0.504493 0.659576 0.055001
0.477882 0.697663 0.054996
0.482517 0.751943 0.054999
0.500038 0.801418 0.054997
0.559212 0.850392 0.054966
0.636872 0.891467 0.054985
0.788535 0.912711 0.054993
1.000000 0.920887 0.055011
0.000000 0.047718 0.055047
0.336082 0.059213 0.055005
0.532105 0.100950 0.055034
0.620638 0.179495 0.055004
0.663729 0.258433 0.055043
0.663925 0.338513 0.055011
0.649188 0.414875 0.055023
0.617922 0.465655 0.054983
0.577266 0.503655 0.054995
0.536374 0.542379 0.054995
0.496356 0.577266 0.055004
0.462302 0.615233 0.055003
0.429976 0.651249 0.055017
0.425445 0.717279 0.055018
0.430683 0.777281 0.055014
0.488546 0.841299 0.054982
0.572010 0.896843 0.054986
0.745311 0.923641 0.055007
1.000000 0.933716 0.055015
0.000000 0.056097 0.055071
0.298556 0.067345 0.054984
0.483634 0.100820 0.055031
0.567684 0.167797 0.054998
0.620703 0.241520 0.055017
0.621807 0.311021 0.054998
0.614291 0.380007 0.055023
0.580852 0.425469 0.055000
0.542389 0.463628 0.055004
0.499995 0.500013 0.055010
0.457600 0.536378 0.055004
0.419142 0.574543 0.055005
0.385713 0.620017 0.055000
0.378207 0.689042 0.054985
0.379285 0.758522 0.055016
0.432334 0.832213 0.055008
0.516298 0.899129 0.055022
0.701577 0.932639 0.055019
1.000000 0.943943 0.055102
0.000000 0.066311 0.055039
0.254794 0.076383 0.055000
0.427934 0.103148 0.054999
0.511461 0.158682 0.054989
0.569315 0.222690 0.054992
0.574550 0.282704 0.054963
0.570030 0.348765 0.055006
0.537706 0.384764 0.054993
0.503642 0.422743 0.054978
0.463633 0.457610 0.055017
0.422742 0.496363 0.054985
0.382068 0.534334 0.055007
0.350830 0.585087 0.055004
0.336084 0.661443 0.054989
0.336249 0.741491 0.054981
0.379368 0.820545 0.054996
0.467933 0.899046 0.055008
0.664105 0.940749 0.054997
1.000000 0.952372 0.054994
0.000000 0.079173 0.054995
0.211470 0.087336 0.055042
0.363159 0.108547 0.055020
0.440808 0.149648 0.055003
0.499956 0.198573 0.054994
0.517484 0.248054 0.055003
0.522137 0.302326 0.055005
0.495533 0.340418 0.054994
0.465650 0.382081 0.054996
0.425451 0.419141 0.054997
0.384777 0.462302 0.054986
0.340396 0.504479 0.054986
0.313615 0.567702 0.055021
0.295520 0.643483 0.055006
0.300050 0.732104 0.055013
0.334810 0.815765 0.054982
0.426833 0.898009 0.055011
0.626397 0.948042 0.054994
1.000000 0.959504 0.055011
0.000000 0.094234 0.055028
0.168627 0.101104 0.055036
0.298710 0.119201 0.055005
0.377351 0.154833 0.055028
0.432802 0.197881 0.055009
0.449170 0.240239 0.055018
0.454112 0.281819 0.054962
0.432351 0.313633 0.055017
0.414880 0.350826 0.054999
0.379971 0.385712 0.055013
0.348768 0.429982 0.055009
0.302327 0.477874 0.054984
0.281811 0.545886 0.055017
0.256663 0.630071 0.055015
0.267179 0.722606 0.054977
0.294732 0.814633 0.055003
0.390499 0.898315 0.055003
0.591625 0.954567 0.055024
1.000000 0.965460 0.054996
0.000000 0.114031 0.054995
0.126345 0.120758 0.054995
0.224619 0.134775 0.054952
0.288290 0.158968 0.054961
0.336348 0.186671 0.054975
0.359052 0.219476 0.054998
0.369845 0.256659 0.054987
0.356530 0.295515 0.054985
0.338547 0.336056 0.055007
0.310983 0.378200 0.055005
0.282720 0.425441 0.054980
0.248028 0.482526 0.054984
0.240252 0.550824 0.055020
0.219474 0.640965 0.054977
0.235219 0.734520 0.055009
0.264588 0.825739 0.055007
0.361076 0.904761 0.054985
0.567747 0.961715 0.055030
1.000000 0.971014 0.054993
0.000000 0.142993 0.054981
0.071248 0.148127 0.055001
0.140683 0.157234 0.055037
0.198674 0.177343 0.055009
0.244279 0.204371 0.055008
0.265484 0.235212 0.055002
0.277358 0.267192 0.055017
0.267886 0.300051 0.055010
0.258471 0.336253 0.055004
0.241503 0.379253 0.055044
0.222717 0.430656 0.054982
0.198578 0.500033 0.055007
0.197883 0.567215 0.055006
0.186671 0.663663 0.054992
0.204374 0.755743 0.054998
0.240818 0.843511 0.054992
0.335221 0.915263 0.055009
0.549015 0.968974 0.055038
1.000000 0.976334 0.054987
0.000000 0.201263 0.054978
0.050615 0.206458 0.054977
0.094124 0.213704 0.054962
0.128270 0.225941 0.055003
0.156505 0.240837 0.054971
0.174238 0.264626 0.055011
0.185329 0.294751 0.054992
0.184227 0.334792 0.055006
0.179459 0.379361 0.055012
0.167785 0.432347 0.055007
0.158695 0.488557 0.054989
0.149641 0.559195 0.054991
0.154835 0.622626 0.055023
0.158964 0.711704 0.054946
0.177314 0.801304 0.055011
0.225945 0.871747 0.054991
0.310770 0.930091 0.055054
0.539074 0.976812 0.054997
1.000000 0.981959 0.055003
0.000000 0.262910 0.054984
0.027938 0.272299 0.055018
0.050968 0.289763 0.055045
0.069907 0.310737 0.055030
0.084692 0.335233 0.055021
0.095204 0.361078 0.054994
0.101651 0.390535 0.055041
0.101983 0.426843 0.055012
0.100967 0.467913 0.054988
0.100882 0.516267 0.055033
0.103161 0.572034 0.054990
0.108554 0.636808 0.054978
0.119205 0.701267 0.055061
0.134739 0.775414 0.054932
0.157197 0.859252 0.055038
0.213708 0.905875 0.054957
0.289819 0.949032 0.055051
0.535009 0.984718 0.054991
1.000000 0.987914 0.055070
0.000000 0.533929 0.054998
0.007500 0.533786 0.054970
0.015278 0.535149 0.055022
0.023187 0.539044 0.055026
0.031016 0.549117 0.055043
0.038282 0.567747 0.055030
0.045435 0.591502 0.055015
0.051954 0.626345 0.054952
0.059253 0.664018 0.054969
0.067365 0.701495 0.055049
0.076359 0.745282 0.055003
0.087302 0.788532 0.055009
0.101045 0.831356 0.055008
0.120740 0.873712 0.054976
0.148102 0.928755 0.055000
0.206455 0.949357 0.054985
0.272297 0.972079 0.055002
0.533766 0.992503 0.054962
1.000000 0.993964 0.054968
0.000000 1.000000 0.054824
0.006053 1.000000 0.054893
0.012106 1.000000 0.055022
0.018050 1.000000 0.055062
0.023659 1.000000 0.055051
0.028984 1.000000 0.054987
0.034552 1.000000 0.054875
0.040524 1.000000 0.054942
0.047659 1.000000 0.054971
0.056100 1.000000 0.055088
0.066342 1.000000 0.055006
0.079141 1.000000 0.054982
0.094092 1.000000 0.054972
0.114033 1.000000 0.055076
0.143000 1.000000 0.054965
0.201237 1.000000 0.055016
0.262905 1.000000 0.054962
0.533974 1.000000 0.054988
1.000000 1.000000 0.054890
0.000000 0.000000 0.109984
0.465983 0.000000 0.109968
0.737187 0.000000 0.110038
0.798778 0.000000 0.109864
0.857002 0.000000 0.110077
0.885959 0.000000 0.109905
0.905736 0.000000 0.110054
0.920821 0.000000 0.110079
0.933666 0.000000 0.110021
0.943901 0.000000 0.109975
0.952355 0.000000 0.110047
0.959493 0.000000 0.109975
0.965416 0.000000 0.109916
0.970942 0.000000 0.109984
0.976271 0.000000 0.109952
0.981895 0.000000 0.110009
0.987851 0.000000 0.109921