# vtk DataFile Version 2.0
Mesh for Fierro
ASCII 
DATASET UNSTRUCTURED_GRID

POINTS 2527 float
0.000000 0.000000 0.000000
0.515110 0.000000 0.000000
0.889457 0.000000 0.000000
0.923200 0.000000 0.000000
0.937007 0.000000 0.000000
0.946480 0.000000 0.000000
0.954161 0.000000 0.000000
0.960835 0.000000 0.000000
0.966725 0.000000 0.000000
0.972034 0.000000 0.000000
0.976456 0.000000 0.000000
0.980140 0.000000 0.000000
0.983018 0.000000 0.000000
0.985346 0.000000 0.000000
0.986917 0.000000 0.000000
0.989159 0.000000 0.000000
0.992318 0.000000 0.000000
0.996943 0.000000 0.000000
1.000000 0.000000 0.000000
0.000000 0.003120 0.000000
0.567256 0.006698 0.000000
0.889250 0.039439 0.000000
0.886559 0.131755 0.000000
0.910806 0.158873 0.000000
0.920571 0.240461 0.000000
0.928363 0.302487 0.000000
0.933491 0.360181 0.000000
0.936956 0.423785 0.000000
0.940232 0.483295 0.000000
0.944326 0.534075 0.000000
0.949255 0.579032 0.000000
0.955032 0.613182 0.000000
0.961511 0.639040 0.000000
0.968201 0.655576 0.000000
0.976664 0.642836 0.000000
0.985370 0.614497 0.000000
0.993203 0.567441 0.000000
1.000000 0.513909 0.000000
0.000000 0.007667 0.000000
0.614281 0.014581 0.000000
0.875269 0.072339 0.000000
0.844117 0.187602 0.000000
0.891820 0.244497 0.000000
0.903608 0.392420 0.000000
0.898455 0.515198 0.000000
0.900037 0.582467 0.000000
0.896941 0.649390 0.000000
0.888973 0.691885 0.000000
0.880622 0.717426 0.000000
0.877611 0.736190 0.000000
0.883835 0.755952 0.000000
0.892102 0.780709 0.000000
0.903584 0.810269 0.000000
0.913284 0.846044 0.000000
0.927204 0.875195 0.000000
0.960230 0.889638 0.000000
1.000000 0.888617 0.000000
0.000000 0.010745 0.000000
0.643356 0.023360 0.000000
0.845780 0.086770 0.000000
0.831972 0.219925 0.000000
0.883296 0.339387 0.000000
0.873180 0.479451 0.000000
0.843297 0.572786 0.000000
0.839151 0.622207 0.000000
0.809866 0.670097 0.000000
0.772757 0.710419 0.000000
0.738194 0.751533 0.000000
0.716960 0.788109 0.000000
0.709309 0.812333 0.000000
0.709429 0.829273 0.000000
0.740269 0.832404 0.000000
0.780743 0.831722 0.000000
0.812982 0.844597 0.000000
0.868925 0.887673 0.000000
1.000000 0.924999 0.000000
0.000000 0.012909 0.000000
0.655805 0.031839 0.000000
0.810214 0.096317 0.000000
0.832481 0.259959 0.000000
0.857262 0.404628 0.000000
0.838270 0.505984 0.000000
0.785801 0.603475 0.000000
0.760910 0.658350 0.000000
0.704025 0.710644 0.000000
0.658693 0.743795 0.000000
0.628041 0.760774 0.000000
0.604333 0.771501 0.000000
0.588536 0.788535 0.000000
0.580549 0.817361 0.000000
0.595455 0.857317 0.000000
0.661132 0.882923 0.000000
0.756087 0.890994 0.000000
0.841198 0.913858 0.000000
1.000000 0.944531 0.000000
0.000000 0.014510 0.000000
0.638659 0.038445 0.000000
0.780472 0.107769 0.000000
0.829218 0.290126 0.000000
0.817558 0.419143 0.000000
0.808604 0.516006 0.000000
0.739745 0.600773 0.000000
0.705048 0.654197 0.000000
0.655147 0.683110 0.000000
0.597277 0.695223 0.000000
0.545156 0.712574 0.000000
0.498011 0.741069 0.000000
0.482772 0.775320 0.000000
0.483884 0.808821 0.000000
0.494189 0.838228 0.000000
0.520246 0.873379 0.000000
0.606958 0.902696 0.000000
0.757519 0.920149 0.000000
1.000000 0.948509 0.000000
0.000000 0.016845 0.000000
0.612981 0.044975 0.000000
0.755857 0.116451 0.000000
0.812487 0.290642 0.000000
0.788621 0.411689 0.000000
0.775517 0.517263 0.000000
0.702585 0.582887 0.000000
0.649640 0.632552 0.000000
0.576458 0.644243 0.000000
0.520867 0.660472 0.000000
0.477673 0.673608 0.000000
0.447041 0.688725 0.000000
0.416923 0.702678 0.000000
0.399189 0.739744 0.000000
0.396531 0.786139 0.000000
0.427091 0.843443 0.000000
0.485183 0.898796 0.000000
0.698736 0.927267 0.000000
1.000000 0.953422 0.000000
0.000000 0.019657 0.000000
0.578665 0.050729 0.000000
0.736159 0.122519 0.000000
0.788162 0.282955 0.000000
0.771446 0.395735 0.000000
0.741132 0.501812 0.000000
0.688670 0.552894 0.000000
0.627657 0.594742 0.000000
0.568356 0.601341 0.000000
0.507453 0.608313 0.000000
0.453588 0.614822 0.000000
0.405331 0.627693 0.000000
0.367476 0.649667 0.000000
0.345776 0.705026 0.000000
0.341623 0.761005 0.000000
0.377844 0.839300 0.000000
0.417304 0.900353 0.000000
0.639899 0.932902 0.000000
1.000000 0.960041 0.000000
0.000000 0.023270 0.000000
0.533748 0.055626 0.000000
0.717339 0.119417 0.000000
0.751604 0.261726 0.000000
0.760740 0.372044 0.000000
0.712601 0.454802 0.000000
0.673659 0.522284 0.000000
0.614883 0.546406 0.000000
0.560185 0.550611 0.000000
0.501983 0.556252 0.000000
0.449357 0.560150 0.000000
0.398619 0.568380 0.000000
0.355751 0.576507 0.000000
0.316907 0.655086 0.000000
0.289270 0.704048 0.000000
0.329978 0.809886 0.000000
0.350036 0.897045 0.000000
0.575508 0.936641 0.000000
1.000000 0.965955 0.000000
0.000000 0.027706 0.000000
0.483312 0.059720 0.000000
0.691913 0.111208 0.000000
0.710521 0.227312 0.000000
0.743781 0.341293 0.000000
0.695233 0.402737 0.000000
0.660405 0.479135 0.000000
0.608227 0.492566 0.000000
0.556190 0.498021 0.000000
0.499961 0.499962 0.000000
0.443716 0.501973 0.000000
0.391701 0.507434 0.000000
0.339584 0.520901 0.000000
0.304815 0.597240 0.000000
0.256237 0.658680 0.000000
0.289471 0.772513 0.000000
0.307881 0.888918 0.000000
0.516154 0.940087 0.000000
1.000000 0.971323 0.000000
0.000000 0.033005 0.000000
0.424301 0.062987 0.000000
0.649667 0.103155 0.000000
0.670180 0.190227 0.000000
0.710667 0.296001 0.000000
0.683130 0.344768 0.000000
0.644325 0.423629 0.000000
0.601338 0.431656 0.000000
0.550661 0.439769 0.000000
0.498011 0.443819 0.000000
0.439837 0.449303 0.000000
0.385192 0.453599 0.000000
0.326348 0.477735 0.000000
0.287355 0.545208 0.000000
0.239297 0.628017 0.000000
0.248461 0.738428 0.000000
0.282503 0.880753 0.000000
0.465874 0.944303 0.000000
1.000000 0.975851 0.000000
0.000000 0.038859 0.000000
0.360280 0.066316 0.000000
0.582738 0.099896 0.000000
0.622265 0.160719 0.000000
0.658359 0.239098 0.000000
0.654101 0.294984 0.000000
0.632526 0.350423 0.000000
0.594772 0.372331 0.000000
0.546398 0.385244 0.000000
0.492532 0.391709 0.000000
0.431669 0.398626 0.000000
0.372284 0.405365 0.000000
0.311203 0.447156 0.000000
0.258945 0.498141 0.000000
0.228418 0.604520 0.000000
0.211940 0.717151 0.000000
0.263689 0.877819 0.000000
0.421415 0.949292 0.000000
1.000000 0.979690 0.000000
0.000000 0.045477 0.000000
0.302845 0.071234 0.000000
0.515249 0.101265 0.000000
0.572655 0.156342 0.000000
0.603408 0.213883 0.000000
0.600938 0.260233 0.000000
0.582917 0.297229 0.000000
0.552839 0.311401 0.000000
0.522316 0.326454 0.000000
0.479033 0.339544 0.000000
0.423577 0.355679 0.000000
0.350442 0.367518 0.000000
0.297221 0.416895 0.000000
0.224675 0.482419 0.000000
0.211402 0.588391 0.000000
0.187580 0.709429 0.000000
0.244018 0.883964 0.000000
0.387025 0.955044 0.000000
1.000000 0.982663 0.000000
0.000000 0.054241 0.000000
0.240501 0.079331 0.000000
0.392622 0.096136 0.000000
0.479909 0.126967 0.000000
0.506119 0.161824 0.000000
0.515834 0.191368 0.000000
0.517544 0.224645 0.000000
0.501819 0.258850 0.000000
0.454816 0.287312 0.000000
0.402786 0.304775 0.000000
0.344891 0.316906 0.000000
0.294977 0.345845 0.000000
0.260126 0.399128 0.000000
0.191445 0.483840 0.000000
0.182630 0.580803 0.000000
0.170735 0.709629 0.000000
0.219405 0.892482 0.000000
0.361055 0.961590 0.000000
1.000000 0.985041 0.000000
0.000000 0.064987 0.000000
0.158994 0.089851 0.000000
0.244927 0.108230 0.000000
0.339117 0.116676 0.000000
0.404499 0.142631 0.000000
0.419252 0.182607 0.000000
0.411678 0.211205 0.000000
0.395598 0.228489 0.000000
0.372092 0.239313 0.000000
0.341311 0.256179 0.000000
0.296068 0.289326 0.000000
0.239052 0.341620 0.000000
0.213802 0.396618 0.000000
0.161776 0.493965 0.000000
0.142812 0.595424 0.000000
0.167510 0.740017 0.000000
0.189652 0.904014 0.000000
0.344436 0.968222 0.000000
1.000000 0.986715 0.000000
0.000000 0.076460 0.000000
0.131653 0.113601 0.000000
0.187715 0.155934 0.000000
0.219482 0.168501 0.000000
0.259912 0.167636 0.000000
0.290339 0.170725 0.000000
0.290474 0.187631 0.000000
0.282823 0.211968 0.000000
0.261679 0.248337 0.000000
0.227601 0.289431 0.000000
0.190094 0.329997 0.000000
0.160658 0.377843 0.000000
0.156318 0.427340 0.000000
0.126778 0.520170 0.000000
0.116951 0.660743 0.000000
0.168263 0.780415 0.000000
0.154154 0.913880 0.000000
0.357210 0.976665 0.000000
1.000000 0.989003 0.000000
0.000000 0.110508 0.000000
0.039401 0.110625 0.000000
0.071786 0.124614 0.000000
0.086166 0.154143 0.000000
0.096119 0.189606 0.000000
0.107656 0.219440 0.000000
0.116109 0.243885 0.000000
0.122287 0.263684 0.000000
0.119382 0.282551 0.000000
0.111146 0.307940 0.000000
0.102926 0.350107 0.000000
0.099615 0.417285 0.000000
0.101051 0.484846 0.000000
0.096265 0.607316 0.000000
0.108520 0.755433 0.000000
0.155694 0.812352 0.000000
0.124736 0.927846 0.000000
0.385034 0.985335 0.000000
1.000000 0.992181 0.000000
0.000000 0.484781 0.000000
0.006768 0.431428 0.000000
0.014722 0.385012 0.000000
0.023394 0.357297 0.000000
0.031851 0.344108 0.000000
0.038452 0.360976 0.000000
0.044942 0.387013 0.000000
0.050722 0.421006 0.000000
0.055653 0.465401 0.000000
0.059704 0.515881 0.000000
0.062906 0.575483 0.000000
0.066309 0.639598 0.000000
0.071353 0.698315 0.000000
0.079429 0.758993 0.000000
0.089232 0.841076 0.000000
0.113292 0.868415 0.000000
0.110542 0.960535 0.000000
0.431478 0.993220 0.000000
1.000000 0.996818 0.000000
0.000000 1.000000 0.000000
0.003164 1.000000 0.000000
0.007662 1.000000 0.000000
0.010790 1.000000 0.000000
0.013001 1.000000 0.000000
0.014598 1.000000 0.000000
0.016883 1.000000 0.000000
0.019708 1.000000 0.000000
0.023397 1.000000 0.000000
0.027820 1.000000 0.000000
0.033174 1.000000 0.000000
0.039111 1.000000 0.000000
0.045893 1.000000 0.000000
0.053463 1.000000 0.000000
0.062504 1.000000 0.000000
0.076493 1.000000 0.000000
0.110469 1.000000 0.000000
0.485431 1.000000 0.000000
1.000000 1.000000 0.000000
0.000000 0.000000 0.054877
0.515943 0.000000 0.055474
0.885987 0.000000 0.055346
0.920263 0.000000 0.055682
0.935977 0.000000 0.055020
[...]
POINT_DATA 2527 
VECTORS pos float 
0.000000 0.000000 0.000000
0.515110 0.000000 0.000000
0.889457 0.000000 0.000000
0.923200 0.000000 0.000000
0.937007 0.000000 0.000000
0.946480 0.000000 0.000000
0.954161 0.000000 0.000000
0.960835 0.000000 0.000000
0.966725 0.000000 0.000000
0.972034 0.000000 0.000000
0.976456 0.000000 0.000000
0.980140 0.000000 0.000000
0.983018 0.000000 0.000000
0.985346 0.000000 0.000000
0.986917 0.000000 0.000000
0.989159 0.000000 0.000000
0.992318 0.000000 0.000000
0.996943 0.000000 0.000000
1.000000 0.000000 0.000000
0.000000 0.003120 0.000000
0.567256 0.006698 0.000000
0.889250 0.039439 0.000000
0.886559 0.131755 0.000000
0.910806 0.158873 0.000000
0.920571 0.240461 0.000000
0.928363 0.302487 0.000000
0.933491 0.360181 0.000000
0.936956 0.423785 0.000000
0.940232 0.483295 0.000000
0.944326 0.534075 0.000000
0.949255 0.579032 0.000000
0.955032 0.613182 0.000000
0.961511 0.639040 0.000000
0.968201 0.655576 0.000000
0.976664 0.642836 0.000000
0.985370 0.614497 0.000000
0.993203 0.567441 0.000000
1.000000 0.513909 0.000000
0.000000 0.007667 0.000000
0.614281 0.014581 0.000000
0.875269 0.072339 0.000000
0.844117 0.187602 0.000000
0.891820 0.244497 0.000000
0.903608 0.392420 0.000000
0.898455 0.515198 0.000000
0.900037 0.582467 0.000000
0.896941 0.649390 0.000000
0.888973 0.691885 0.000000
0.880622 0.717426 0.000000
0.877611 0.736190 0.000000
0.883835 0.755952 0.000000
0.892102 0.780709 0.000000
0.903584 0.810269 0.000000
0.913284 0.846044 0.000000
0.927204 0.875195 0.000000
0.960230 0.889638 0.000000
1.000000 0.888617 0.000000
0.000000 0.010745 0.000000
0.643356 0.023360 0.000000
0.845780 0.086770 0.000000
0.831972 0.219925 0.000000
0.883296 0.339387 0.000000
0.873180 0.479451 0.000000
0.843297 0.572786 0.000000
0.839151 0.622207 0.000000
0.809866 0.670097 0.000000
0.772757 0.710419 0.000000
0.738194 0.751533 0.000000
0.716960 0.788109 0.000000
0.709309 0.812333 0.000000
0.709429 0.829273 0.000000
0.740269 0.832404 0.000000
0.780743 0.831722 0.000000
0.812982 0.844597 0.000000
0.868925 0.887673 0.000000
1.000000 0.924999 0.000000
0.000000 0.012909 0.000000
0.655805 0.031839 0.000000
0.810214 0.096317 0.000000
0.832481 0.259959 0.000000
0.857262 0.404628 0.000000
0.838270 0.505984 0.000000
0.785801 0.603475 0.000000
0.760910 0.658350 0.000000
0.704025 0.710644 0.000000
0.658693 0.743795 0.000000
0.628041 0.760774 0.000000
0.604333 0.771501 0.000000
0.588536 0.788535 0.000000
0.580549 0.817361 0.000000
0.595455 0.857317 0.000000
0.661132 0.882923 0.000000
0.756087 0.890994 0.000000
0.841198 0.913858 0.000000
1.000000 0.944531 0.000000
0.000000 0.014510 0.000000
0.638659 0.038445 0.000000
0.780472 0.107769 0.000000
0.829218 0.290126 0.000000
0.817558 0.419143 0.000000
0.808604 0.516006 0.000000
0.739745 0.600773 0.000000
0.705048 0.654197 0.000000
0.655147 0.683110 0.000000
0.597277 0.695223 0.000000
0.545156 0.712574 0.000000
0.498011 0.741069 0.000000
0.482772 0.775320 0.000000
0.483884 0.808821 0.000000
0.494189 0.838228 0.000000
0.520246 0.873379 0.000000
0.606958 0.902696 0.000000
0.757519 0.920149 0.000000
1.000000 0.948509 0.000000
0.000000 0.016845 0.000000
0.612981 0.044975 0.000000
0.755857 0.116451 0.000000
0.812487 0.290642 0.000000
0.788621 0.411689 0.000000
0.775517 0.517263 0.000000
0.702585 0.582887 0.000000
0.649640 0.632552 0.000000
0.576458 0.644243 0.000000
0.520867 0.660472 0.000000
0.477673 0.673608 0.000000
0.447041 0.688725 0.000000
0.416923 0.702678 0.000000
0.399189 0.739744 0.000000
0.396531 0.786139 0.000000
0.427091 0.843443 0.000000
0.485183 0.898796 0.000000
0.698736 0.927267 0.000000
1.000000 0.953422 0.000000
0.000000 0.019657 0.000000
0.578665 0.050729 0.000000
0.736159 0.122519 0.000000
0.788162 0.282955 0.000000
0.771446 0.395735 0.000000
0.741132 0.501812 0.000000
0.688670 0.552894 0.000000
0.627657 0.594742 0.000000
0.568356 0.601341 0.000000
0.507453 0.608313 0.000000
0.453588 0.614822 0.000000
0.405331 0.627693 0.000000
0.367476 0.649667 0.000000
0.345776 0.705026 0.000000
0.341623 0.761005 0.000000
0.377844 0.839300 0.000000
0.417304 0.900353 0.000000
0.639899 0.932902 0.000000
1.000000 0.960041 0.000000
0.000000 0.023270 0.000000
0.533748 0.055626 0.000000
0.717339 0.119417 0.000000
0.751604 0.261726 0.000000
0.760740 0.372044 0.000000
0.712601 0.454802 0.000000
0.673659 0.522284 0.000000
0.614883 0.546406 0.000000
0.560185 0.550611 0.000000
0.501983 0.556252 0.000000
0.449357 0.560150 0.000000
0.398619 0.568380 0.000000
0.355751 0.576507 0.000000
0.316907 0.655086 0.000000
0.289270 0.704048 0.000000
0.329978 0.809886 0.000000
0.350036 0.897045 0.000000
0.575508 0.936641 0.000000
1.000000 0.965955 0.000000
0.000000 0.027706 0.000000
0.483312 0.059720 0.000000
0.691913 0.111208 0.000000
0.710521 0.227312 0.000000
0.743781 0.341293 0.000000
0.695233 0.402737 0.000000
0.660405 0.479135 0.000000
0.608227 0.492566 0.000000
0.556190 0.498021 0.000000
0.499961 0.499962 0.000000
0.443716 0.501973 0.000000
0.391701 0.507434 0.000000
0.339584 0.520901 0.000000
0.304815 0.597240 0.000000
0.256237 0.658680 0.000000
0.289471 0.772513 0.000000
0.307881 0.888918 0.000000
0.516154 0.940087 0.000000
1.000000 0.971323 0.000000
0.000000 0.033005 0.000000
0.424301 0.062987 0.000000
0.649667 0.103155 0.000000
0.670180 0.190227 0.000000
0.710667 0.296001 0.000000
0.683130 0.344768 0.000000
0.644325 0.423629 0.000000
0.601338 0.431656 0.000000
0.550661 0.439769 0.000000
0.498011 0.443819 0.000000
0.439837 0.449303 0.000000
0.385192 0.453599 0.000000
0.326348 0.477735 0.000000
0.287355 0.545208 0.000000
0.239297 0.628017 0.000000
0.248461 0.738428 0.000000
0.282503 0.880753 0.000000
0.465874 0.944303 0.000000
1.000000 0.975851 0.000000
0.000000 0.038859 0.000000
0.360280 0.066316 0.000000
0.582738 0.099896 0.000000
0.622265 0.160719 0.000000
0.658359 0.239098 0.000000
0.654101 0.294984 0.000000
0.632526 0.350423 0.000000
0.594772 0.372331 0.000000
0.546398 0.385244 0.000000
0.492532 0.391709 0.000000
0.431669 0.398626 0.000000
0.372284 0.405365 0.000000
0.311203 0.447156 0.000000
0.258945 0.498141 0.000000
0.228418 0.604520 0.000000
0.211940 0.717151 0.000000
0.263689 0.877819 0.000000
0.421415 0.949292 0.000000
1.000000 0.979690 0.000000
0.000000 0.045477 0.000000
0.302845 0.071234 0.000000
0.515249 0.101265 0.000000
0.572655 0.156342 0.000000
0.603408 0.213883 0.000000
0.600938 0.260233 0.000000
0.582917 0.297229 0.000000
0.552839 0.311401 0.000000
0.522316 0.326454 0.000000
0.479033 0.339544 0.000000
0.423577 0.355679 0.000000
0.350442 0.367518 0.000000
0.297221 0.416895 0.000000
0.224675 0.482419 0.000000
0.211402 0.588391 0.000000
0.187580 0.709429 0.000000
0.244018 0.883964 0.000000
0.387025 0.955044 0.000000
1.000000 0.982663 0.000000
0.000000 0.054241 0.000000
0.240501 0.079331 0.000000
0.392622 0.096136 0.000000
0.479909 0.126967 0.000000
0.506119 0.161824 0.000000
0.515834 0.191368 0.000000
0.517544 0.224645 0.000000
0.501819 0.258850 0.000000
0.454816 0.287312 0.000000
0.402786 0.304775 0.000000
0.344891 0.316906 0.000000
0.294977 0.345845 0.000000
0.260126 0.399128 0.000000
0.191445 0.483840 0.000000
0.182630 0.580803 0.000000
0.170735 0.709629 0.000000
0.219405 0.892482 0.000000
0.361055 0.961590 0.000000
1.000000 0.985041 0.000000
0.000000 0.064987 0.000000
0.158994 0.089851 0.000000
0.244927 0.108230 0.000000
0.339117 0.116676 0.000000
0.404499 0.142631 0.000000
0.419252 0.182607 0.000000
0.411678 0.211205 0.000000
0.395598 0.228489 0.000000
0.372092 0.239313 0.000000
0.341311 0.256179 0.000000
0.296068 0.289326 0.000000
0.239052 0.341620 0.000000
0.213802 0.396618 0.000000
0.161776 0.493965 0.000000
0.142812 0.595424 0.000000
0.167510 0.740017 0.000000
0.189652 0.904014 0.000000
0.344436 0.968222 0.000000
1.000000 0.986715 0.000000
0.000000 0.076460 0.000000
0.131653 0.113601 0.000000
0.187715 0.155934 0.000000
0.219482 0.168501 0.000000
0.259912 0.167636 0.000000
0.290339 0.170725 0.000000
0.290474 0.187631 0.000000
0.282823 0.211968 0.000000
0.261679 0.248337 0.000000
0.227601 0.289431 0.000000
0.190094 0.329997 0.000000
0.160658 0.377843 0.000000
0.156318 0.427340 0.000000
0.126778 0.520170 0.000000
0.116951 0.660743 0.000000
0.168263 0.780415 0.000000
0.154154 0.913880 0.000000
0.357210 0.976665 0.000000
1.000000 0.989003 0.000000
0.000000 0.110508 0.000000
0.039401 0.110625 0.000000
0.071786 0.124614 0.000000
0.086166 0.154143 0.000000
0.096119 0.189606 0.000000
0.107656 0.219440 0.000000
0.116109 0.243885 0.000000
0.122287 0.263684 0.000000
0.119382 0.282551 0.000000
0.111146 0.307940 0.000000
0.102926 0.350107 0.000000
0.099615 0.417285 0.000000
0.101051 0.484846 0.000000
0.096265 0.607316 0.000000
0.108520 0.755433 0.000000
0.155694 0.812352 0.000000
0.124736 0.927846 0.000000
0.385034 0.985335 0.000000
1.000000 0.992181 0.000000
0.000000 0.484781 0.000000
0.006768 0.431428 0.000000
0.014722 0.385012 0.000000
0.023394 0.357297 0.000000
0.031851 0.344108 0.000000
0.038452 0.360976 0.000000
0.044942 0.387013 0.000000
0.050722 0.421006 0.000000
0.055653 0.465401 0.000000
0.059704 0.515881 0.000000
0.062906 0.575483 0.000000
0.066309 0.639598 0.000000
0.071353 0.698315 0.000000
0.079429 0.758993 0.000000
0.089232 0.841076 0.000000
0.113292 0.868415 0.000000
0.110542 0.960535 0.000000
0.431478 0.993220 0.000000
1.000000 0.996818 0.000000
0.000000 1.000000 0.000000
0.003164 1.000000 0.000000
0.007662 1.000000 0.000000
0.010790 1.000000 0.000000
0.013001 1.000000 0.000000
0.014598 1.000000 0.000000
0.016883 1.000000 0.000000
0.019708 1.000000 0.000000
0.023397 1.000000 0.000000
0.027820 1.000000 0.000000
0.033174 1.000000 0.000000
0.039111 1.000000 0.000000
0.045893 1.000000 0.000000
0.053463 1.000000 0.000000
0.062504 1.000000 0.000000
0.076493 1.000000 0.000000
0.110469 1.000000 0.000000
0.485431 1.000000 0.000000
1.000000 1.000000 0.000000
0.000000 0.000000 0.054877
0.515943 0.000000 0.055474
0.885987 0.000000 0.055346
0.920263 0.000000 0.055682
0.935977 0.000000 0.055020
0.946839 0.000000 0.052189
0.955595 0.000000 0.054807
0.962015 0.000000 0.055170
0.967670 0.000000 0.055339
0.972803 0.000000 0.055447
0.977121 0.000000 0.055276
0.980714 0.000000 0.055102
0.983493 0.000000 0.054941
0.985758 0.000000 0.054874
0.987328 0.000000 0.054926
0.989521 0.000000 0.055016
0.992663 0.000000 0.055166
0.997125 0.000000 0.055401
1.000000 0.000000 0.057164
0.000000 0.002889 0.055257
0.568472 0.006875 0.055198
0.887661 0.038476 0.055187
0.886008 0.131866 0.054976
0.911047 0.158301 0.055371
0.921086 0.240638 0.054226
0.929082 0.302531 0.055209
0.933860 0.360823 0.055259
0.937148 0.424433 0.055086
0.940318 0.484046 0.054983
0.944338 0.534616 0.055015
0.949224 0.578928 0.054990
0.954928 0.613165 0.055065
0.961392 0.639407 0.055022
0.967989 0.655993 0.055063
0.976438 0.642400 0.054903
0.985150 0.613817 0.055104
0.993206 0.568426 0.055128
1.000000 0.518483 0.054213
0.000000 0.007380 0.055071
0.614344 0.014878 0.055073
0.874855 0.071491 0.055152
0.844482 0.188264 0.054955
0.892312 0.244546 0.055124
0.903870 0.392752 0.054879
0.898673 0.514857 0.054929
0.900004 0.582747 0.054955
0.896814 0.649725 0.054840
0.888653 0.691938 0.054953
0.880440 0.717360 0.054961
0.877531 0.736207 0.055050
0.883762 0.755945 0.055172
0.892219 0.780653 0.054911
0.903632 0.810226 0.055175
0.913586 0.845758 0.055065
0.928669 0.874762 0.055246
0.961825 0.887238 0.054750
1.000000 0.885616 0.058363
0.000000 0.010560 0.055049
0.642645 0.023557 0.055001
0.845737 0.086307 0.054990
0.831815 0.219903 0.054973
0.883514 0.338859 0.055075
0.873086 0.479722 0.055038
0.843695 0.572694 0.055009
0.839213 0.622192 0.054951
0.809778 0.670090 0.055006
0.772502 0.710576 0.055060
0.738372 0.751678 0.055015
0.717240 0.788100 0.054990
0.709649 0.812421 0.054893
0.709499 0.829412 0.055000
0.739704 0.832641 0.054827
0.779956 0.831800 0.054891
0.811607 0.844389 0.055014
0.867973 0.885725 0.054474
1.000000 0.919361 0.050202
0.000000 0.012771 0.055110
0.656134 0.032021 0.054912
0.810187 0.096286 0.055006
0.832587 0.260052 0.054958
0.857437 0.404498 0.054943
0.838271 0.506097 0.054961
0.785987 0.603325 0.054994
0.760845 0.658310 0.054990
0.703972 0.710747 0.055001
0.658615 0.743765 0.055031
0.628045 0.760680 0.055011
0.604431 0.771463 0.055048
0.588366 0.788637 0.055159
0.580790 0.817449 0.054960
0.595462 0.857513 0.055069
0.661458 0.883733 0.055253
0.755222 0.892674 0.055188
0.841770 0.909575 0.054134
1.000000 0.932104 0.055172
0.000000 0.014362 0.055049
0.639260 0.038617 0.054910
0.780523 0.107786 0.055077
0.829408 0.290498 0.055009
0.817326 0.419308 0.055024
0.808660 0.515880 0.055027
0.739673 0.600963 0.055035
0.705052 0.654259 0.055007
0.655129 0.683153 0.055016
0.597192 0.695187 0.054970
0.545189 0.712727 0.055006
0.498118 0.741069 0.054988
0.482444 0.775512 0.055034
0.484188 0.808515 0.054854
0.493770 0.838259 0.055076
0.520426 0.872995 0.054800
0.607442 0.904349 0.055215
0.759848 0.921274 0.055479
1.000000 0.945659 0.059900
0.000000 0.016631 0.055056
0.613162 0.045099 0.054925
0.755944 0.116167 0.055078
0.812399 0.290356 0.054944
0.788639 0.411502 0.054938
0.775493 0.517407 0.054973
0.702661 0.582853 0.054957
0.649661 0.632527 0.054998
0.576466 0.644186 0.054980
0.520940 0.660504 0.054990
0.477668 0.673543 0.054995
0.447103 0.688646 0.055010
0.417100 0.702685 0.055048
0.399058 0.739764 0.055005
0.396687 0.785995 0.055000
0.427367 0.843792 0.055106
0.484984 0.898567 0.054943
0.696970 0.929697 0.054742
1.000000 0.956158 0.055320
0.000000 0.019412 0.055059
0.578644 0.050807 0.054959
0.736197 0.122368 0.055056
0.788098 0.282817 0.055004
0.771476 0.395504 0.054986
0.741059 0.501927 0.054992
0.688659 0.552881 0.055009
0.627694 0.594668 0.054997
0.568352 0.601333 0.054989
0.507461 0.608307 0.055013
0.453651 0.614774 0.055019
0.405346 0.627675 0.055009
0.367483 0.649605 0.055013
0.345767 0.705092 0.054983
0.341667 0.760836 0.054978
0.377809 0.839285 0.054936
0.417253 0.899903 0.054996
0.639142 0.934224 0.054934
1.000000 0.962444 0.054906
0.000000 0.023035 0.055147
0.534240 0.055716 0.055021
0.717361 0.119452 0.055017
0.751660 0.261621 0.055028
0.760676 0.371909 0.055053
0.712699 0.454785 0.055044
0.673585 0.522297 0.055011
0.614798 0.546376 0.054969
0.560184 0.550674 0.055008
0.501986 0.556196 0.054982
0.449337 0.560184 0.054997
0.398678 0.568356 0.054991
0.355798 0.576518 0.055003
0.316841 0.655169 0.055007
0.289329 0.703988 0.055007
0.329890 0.809856 0.054984
0.350239 0.896648 0.054933
0.575430 0.937323 0.055134
1.000000 0.968030 0.054806
0.000000 0.027408 0.055251
0.483879 0.059774 0.055007
0.691917 0.111300 0.055042
0.710574 0.227410 0.055002
0.743743 0.341382 0.055008
0.695195 0.402849 0.054986
0.660452 0.479080 0.055016
0.608285 0.492568 0.055003
0.556209 0.498013 0.055019
0.500001 0.500029 0.055020
0.443781 0.501986 0.055004
0.391705 0.507430 0.055007
0.339559 0.520938 0.055006
0.304764 0.597245 0.054983
0.256247 0.658623 0.055020
0.289447 0.772617 0.055002
0.308103 0.888591 0.055070
0.516215 0.940413 0.055036
1.000000 0.973189 0.055000
0.000000 0.032587 0.055145
0.424694 0.063007 0.055058
0.649799 0.103265 0.055005
0.670136 0.190221 0.054987
0.710710 0.296026 0.055019
0.683188 0.344834 0.054955
0.644193 0.423531 0.055005
0.601346 0.431641 0.054988
0.550644 0.439815 0.054990
0.498009 0.443807 0.055033
0.439820 0.449332 0.054994
0.385182 0.453590 0.054989
0.326461 0.477727 0.055011
0.287321 0.545150 0.054983
0.239310 0.628108 0.054988
0.248361 0.738421 0.055003
0.282629 0.880360 0.054993
0.465702 0.944365 0.055011
1.000000 0.977483 0.054975
0.000000 0.038232 0.055089
0.360745 0.066344 0.055261
0.582711 0.100036 0.055056
0.622207 0.160757 0.055007
0.658336 0.239127 0.054965
0.654240 0.294939 0.055024
0.632547 0.350345 0.054992
0.594719 0.372329 0.055019
0.546389 0.385194 0.054965
0.492570 0.391700 0.054992
0.431647 0.398670 0.054984
0.372306 0.405291 0.054991
0.311373 0.447098 0.054996
0.258899 0.498037 0.055012
0.228581 0.604407 0.055013
0.211837 0.717194 0.055001
0.263776 0.877383 0.055079
0.421190 0.949193 0.054959
1.000000 0.981018 0.055014
0.000000 0.044656 0.055385
0.302109 0.071252 0.055394
0.514695 0.101411 0.055023
0.572701 0.156272 0.054974
0.603373 0.214000 0.054928
0.600845 0.260284 0.055020
0.582867 0.297361 0.054936
0.552865 0.311425 0.055030
0.522277 0.326453 0.055017
0.479013 0.339581 0.055035
0.423467 0.355800 0.055020
0.350320 0.367454 0.054942
0.297337 0.417150 0.055067
0.224538 0.482692 0.054960
0.211344 0.588521 0.055042
0.187564 0.709644 0.055012
0.244002 0.883653 0.055028
0.386954 0.954864 0.055013
1.000000 0.983765 0.055019
0.000000 0.052805 0.049981
0.241461 0.079140 0.053982
0.392786 0.096374 0.054721
0.479767 0.127025 0.055002
0.506056 0.161751 0.054955
0.515936 0.191363 0.055022
0.517354 0.224531 0.054940
0.501963 0.258888 0.054983
0.454886 0.287319 0.054962
0.402823 0.304764 0.055007
0.344882 0.316811 0.054956
0.294930 0.345771 0.055011
0.260269 0.399051 0.055008
0.191412 0.484074 0.054959
0.182685 0.580664 0.054991
0.170533 0.709461 0.055042
0.219407 0.891958 0.054969
0.360863 0.961310 0.054992
1.000000 0.985984 0.055013
0.000000 0.062437 0.056582
0.158460 0.088477 0.055620
0.244394 0.107876 0.055087
0.338644 0.116604 0.054860
0.404397 0.142577 0.054911
0.419313 0.182681 0.055025
0.411481 0.211357 0.055026
0.395571 0.228541 0.055019
0.371892 0.239317 0.055057
0.341399 0.256243 0.055029
0.296036 0.289331 0.054993
0.239153 0.341631 0.054987
0.213900 0.396575 0.054960
0.161817 0.493973 0.054984
0.142477 0.595568 0.054947
0.167393 0.739787 0.055135
0.189764 0.903450 0.055022
0.344187 0.967952 0.055056
1.000000 0.987508 0.054900
0.000000 0.079280 0.058661
0.131757 0.113544 0.055258
0.187946 0.155415 0.054887
0.219726 0.168211 0.055102
0.260002 0.167430 0.055073
0.290484 0.170571 0.055047
0.290317 0.187578 0.055031
0.282795 0.211848 0.055003
0.261607 0.248356 0.055002
0.227376 0.289460 0.054984
0.190196 0.329884 0.055006
0.160746 0.377804 0.055007
0.156278 0.427391 0.054969
0.127026 0.520256 0.054868
0.116393 0.661211 0.054985
0.168336 0.780295 0.055049
0.153963 0.913629 0.055001
0.357681 0.976448 0.054944
1.000000 0.989652 0.054897
0.000000 0.113254 0.053318
0.038743 0.111912 0.054743
0.071811 0.124926 0.055041
0.086528 0.153997 0.055020
0.096488 0.189733 0.055082
0.107982 0.219375 0.055031
0.116309 0.244046 0.055000
0.122558 0.263760 0.055055
0.119544 0.282584 0.054983
0.111357 0.308045 0.055028
0.103278 0.350249 0.054887
0.100050 0.417256 0.055001
0.101408 0.485244 0.054983
0.096177 0.607254 0.054579
0.107753 0.755199 0.055132
0.155631 0.811987 0.054893
0.124844 0.928392 0.055026
0.385731 0.985156 0.055010
1.000000 0.992716 0.054842
0.000000 0.484111 0.055812
0.006855 0.431847 0.055164
0.014857 0.385954 0.054984
0.023554 0.357429 0.054990
0.032015 0.344105 0.054998
0.038636 0.360813 0.055022
0.045088 0.387053 0.055013
0.050819 0.421123 0.054989
0.055712 0.465727 0.055012
0.059775 0.516048 0.055156
0.062983 0.575328 0.055196
0.066281 0.639225 0.055252
0.071101 0.697815 0.055320
0.079005 0.759311 0.054228
0.088820 0.841392 0.055255
0.113768 0.868142 0.055270
0.111874 0.961332 0.054369
0.431608 0.993163 0.055255
1.000000 0.997132 0.054700
0.000000 1.000000 0.053791
0.002892 1.000000 0.054848
0.007390 1.000000 0.054983
0.010524 1.000000 0.055087
0.012713 1.000000 0.055166
0.014273 1.000000 0.055136
0.016542 1.000000 0.055005
0.019339 1.000000 0.055002
0.022946 1.000000 0.055003
0.027284 1.000000 0.054933
0.032465 1.000000 0.054722
0.038127 1.000000 0.054692
0.044557 1.000000 0.054940
0.053106 1.000000 0.053301
0.063619 1.000000 0.055982
0.079145 1.000000 0.057883
0.113184 1.000000 0.053531
0.484082 1.000000 0.055468
1.000000 1.000000 0.053979
0.000000 0.000000 0.110623
0.514183 0.000000 0.109761
0.889609 0.000000 0.111571
0.923885 0.000000 0.107839
0.939446 0.000000 0.109422
0.947186 0.000000 0.107643
0.953844 0.000000 0.110281
0.960519 0.000000 0.110406
0.966438 0.000000 0.110304
0.971836 0.000000 0.110218
0.976350 0.000000 0.110339
0.980092 0.000000 0.110261
0.983000 0.000000 0.110257
0.985349 0.000000 0.110268
0.986985 0.000000 0.110242
0.989211 0.000000 0.110408
0.992323 0.000000 0.110716