# vtk DataFile Version 2.0
Mesh for Fierro
ASCII 
DATASET UNSTRUCTURED_GRID

POINTS 2527 float
0.000000 0.000000 0.000000
0.156954 0.000000 0.000000
0.297881 0.000000 0.000000
0.418590 0.000000 0.000000
0.516582 0.000000 0.000000
0.593395 0.000000 0.000000
0.656189 0.000000 0.000000
0.709309 0.000000 0.000000
0.754483 0.000000 0.000000
0.791196 0.000000 0.000000
0.823756 0.000000 0.000000
0.852607 0.000000 0.000000
0.878301 0.000000 0.000000
0.901322 0.000000 0.000000
0.923406 0.000000 0.000000
0.943541 0.000000 0.000000
0.963479 0.000000 0.000000
0.981487 0.000000 0.000000
1.000000 0.000000 0.000000
0.000000 0.018533 0.000000
0.156112 0.019840 0.000000
0.296285 0.023143 0.000000
0.416132 0.028924 0.000000
0.513540 0.035585 0.000000
0.590137 0.044418 0.000000
0.652899 0.053912 0.000000
0.704964 0.064942 0.000000
0.749382 0.076996 0.000000
0.785552 0.088959 0.000000
0.817476 0.100488 0.000000
0.846418 0.112166 0.000000
0.871670 0.123602 0.000000
0.895472 0.133158 0.000000
0.917743 0.141275 0.000000
0.939240 0.148075 0.000000
0.959827 0.152429 0.000000
0.980162 0.156107 0.000000
1.000000 0.156935 0.000000
0.000000 0.036523 0.000000
0.152429 0.040172 0.000000
0.290462 0.046243 0.000000
0.407820 0.057474 0.000000
0.503785 0.070312 0.000000
0.579656 0.087221 0.000000
0.641718 0.105531 0.000000
0.693301 0.126602 0.000000
0.736539 0.149151 0.000000
0.772645 0.171468 0.000000
0.803824 0.194307 0.000000
0.832609 0.215407 0.000000
0.858643 0.236821 0.000000
0.883488 0.254784 0.000000
0.907230 0.269721 0.000000
0.930735 0.282087 0.000000
0.953759 0.290461 0.000000
0.976856 0.296287 0.000000
1.000000 0.297888 0.000000
0.000000 0.056483 0.000000
0.148073 0.060761 0.000000
0.282087 0.069265 0.000000
0.396320 0.085396 0.000000
0.489735 0.103873 0.000000
0.563437 0.127948 0.000000
0.623797 0.153894 0.000000
0.673103 0.183068 0.000000
0.714250 0.214837 0.000000
0.748973 0.245047 0.000000
0.778877 0.276467 0.000000
0.807614 0.305510 0.000000
0.833896 0.334927 0.000000
0.860628 0.358886 0.000000
0.887168 0.379300 0.000000
0.914604 0.396322 0.000000
0.942525 0.407820 0.000000
0.971076 0.416131 0.000000
1.000000 0.418586 0.000000
0.000000 0.076560 0.000000
0.141288 0.082255 0.000000
0.269718 0.092771 0.000000
0.379302 0.112832 0.000000
0.470388 0.136500 0.000000
0.541111 0.166302 0.000000
0.599428 0.198289 0.000000
0.646678 0.233965 0.000000
0.685492 0.272775 0.000000
0.718846 0.310769 0.000000
0.748683 0.347556 0.000000
0.777568 0.382193 0.000000
0.803735 0.417763 0.000000
0.833162 0.446344 0.000000
0.863498 0.470392 0.000000
0.896127 0.489738 0.000000
0.929689 0.503783 0.000000
0.964414 0.513542 0.000000
1.000000 0.516584 0.000000
0.000000 0.098681 0.000000
0.133159 0.104530 0.000000
0.254779 0.116510 0.000000
0.358883 0.139373 0.000000
0.446342 0.166838 0.000000
0.513620 0.201275 0.000000
0.570141 0.237562 0.000000
0.614006 0.278687 0.000000
0.649370 0.322570 0.000000
0.681628 0.364730 0.000000
0.710259 0.407047 0.000000
0.738949 0.444673 0.000000
0.766290 0.482001 0.000000
0.798726 0.513616 0.000000
0.833699 0.541108 0.000000
0.872053 0.563434 0.000000
0.912778 0.579656 0.000000
0.955582 0.590136 0.000000
1.000000 0.593393 0.000000
0.000000 0.121707 0.000000
0.123617 0.128328 0.000000
0.236829 0.141361 0.000000
0.334929 0.166103 0.000000
0.417762 0.196265 0.000000
0.481997 0.233711 0.000000
0.537268 0.274074 0.000000
0.577120 0.319034 0.000000
0.609456 0.366992 0.000000
0.640728 0.412066 0.000000
0.667809 0.457821 0.000000
0.697079 0.498597 0.000000
0.725925 0.537266 0.000000
0.762438 0.570144 0.000000
0.801711 0.599429 0.000000
0.846106 0.623798 0.000000
0.894469 0.641717 0.000000
0.946089 0.652900 0.000000
1.000000 0.656189 0.000000
0.000000 0.147405 0.000000
0.112173 0.153579 0.000000
0.215407 0.167392 0.000000
0.305510 0.192386 0.000000
0.382194 0.222432 0.000000
0.444673 0.261051 0.000000
0.498598 0.302921 0.000000
0.535289 0.348366 0.000000
0.565779 0.396529 0.000000
0.595458 0.444282 0.000000
0.622312 0.491205 0.000000
0.651634 0.535290 0.000000
0.680967 0.577119 0.000000
0.721313 0.614006 0.000000
0.766035 0.646679 0.000000
0.816932 0.673102 0.000000
0.873399 0.693302 0.000000
0.935057 0.704963 0.000000
1.000000 0.709311 0.000000
0.000000 0.176238 0.000000
0.100491 0.182527 0.000000
0.194314 0.196174 0.000000
0.276464 0.221124 0.000000
0.347559 0.251316 0.000000
0.407045 0.289741 0.000000
0.457821 0.332190 0.000000
0.491207 0.377690 0.000000
0.520872 0.424747 0.000000
0.548445 0.472996 0.000000
0.575252 0.520877 0.000000
0.603471 0.565777 0.000000
0.633007 0.609457 0.000000
0.677430 0.649370 0.000000
0.727225 0.685491 0.000000
0.785163 0.714251 0.000000
0.850848 0.736538 0.000000
0.923003 0.749383 0.000000
1.000000 0.754482 0.000000
0.000000 0.208801 0.000000
0.088955 0.214449 0.000000
0.171468 0.227355 0.000000
0.245047 0.251027 0.000000
0.310769 0.281153 0.000000
0.364730 0.318373 0.000000
0.412065 0.359273 0.000000
0.444285 0.404541 0.000000
0.472998 0.451558 0.000000
0.499995 0.500003 0.000000
0.527003 0.548441 0.000000
0.555716 0.595459 0.000000
0.587935 0.640727 0.000000
0.635270 0.681627 0.000000
0.689231 0.718847 0.000000
0.754953 0.748972 0.000000
0.828532 0.772646 0.000000
0.911042 0.785551 0.000000
1.000000 0.791201 0.000000
0.000000 0.245519 0.000000
0.076998 0.250617 0.000000
0.149151 0.263461 0.000000
0.214837 0.285749 0.000000
0.272775 0.314509 0.000000
0.322570 0.350630 0.000000
0.366992 0.390545 0.000000
0.396528 0.434220 0.000000
0.424746 0.479132 0.000000
0.451563 0.527000 0.000000
0.479126 0.575252 0.000000
0.508794 0.622311 0.000000
0.542177 0.667810 0.000000
0.592956 0.710259 0.000000
0.652440 0.748684 0.000000
0.723538 0.778876 0.000000
0.805685 0.803827 0.000000
0.899520 0.817473 0.000000
1.000000 0.823761 0.000000
0.000000 0.290689 0.000000
0.064941 0.295037 0.000000
0.126601 0.306699 0.000000
0.183068 0.326897 0.000000
0.233965 0.353322 0.000000
0.278687 0.385994 0.000000
0.319034 0.422880 0.000000
0.348367 0.464711 0.000000
0.377690 0.508791 0.000000
0.404539 0.555717 0.000000
0.434222 0.603471 0.000000
0.464710 0.651634 0.000000
0.501402 0.697080 0.000000
0.555328 0.738949 0.000000
0.617805 0.777569 0.000000
0.694491 0.807614 0.000000
0.784592 0.832609 0.000000
0.887834 0.846422 0.000000
1.000000 0.852595 0.000000
0.000000 0.343812 0.000000
0.053912 0.347101 0.000000
0.105534 0.358282 0.000000
0.153894 0.376202 0.000000
0.198287 0.400572 0.000000
0.237562 0.429857 0.000000
0.274076 0.462733 0.000000
0.302920 0.501402 0.000000
0.332190 0.542179 0.000000
0.359274 0.587934 0.000000
0.390544 0.633008 0.000000
0.422880 0.680966 0.000000
0.462730 0.725925 0.000000
0.518005 0.766290 0.000000
0.582233 0.803734 0.000000
0.665072 0.833899 0.000000
0.763166 0.858634 0.000000
0.876397 0.871677 0.000000
1.000000 0.878333 0.000000
0.000000 0.406605 0.000000
0.044417 0.409862 0.000000
0.087219 0.420343 0.000000
0.127948 0.436565 0.000000
0.166304 0.458890 0.000000
0.201276 0.486382 0.000000
0.233709 0.518002 0.000000
0.261051 0.555327 0.000000
0.289742 0.592957 0.000000
0.318373 0.635270 0.000000
0.350630 0.677430 0.000000
0.385994 0.721313 0.000000
0.429857 0.762438 0.000000
0.486383 0.798725 0.000000
0.553658 0.833162 0.000000
0.641119 0.860626 0.000000
0.745220 0.883493 0.000000
0.866844 0.895464 0.000000
1.000000 0.901278 0.000000
0.000000 0.483419 0.000000
0.035586 0.486461 0.000000
0.070315 0.496215 0.000000
0.103871 0.510264 0.000000
0.136497 0.529613 0.000000
0.166837 0.553655 0.000000
0.196268 0.582237 0.000000
0.222432 0.617806 0.000000
0.251316 0.652440 0.000000
0.281153 0.689231 0.000000
0.314509 0.727225 0.000000
0.353322 0.766035 0.000000
0.400573 0.801713 0.000000
0.458889 0.833696 0.000000
0.529613 0.863503 0.000000
0.620697 0.887165 0.000000
0.730283 0.907232 0.000000
0.858710 0.917744 0.000000
1.000000 0.923428 0.000000
0.000000 0.581411 0.000000
0.028925 0.583866 0.000000
0.057470 0.592180 0.000000
0.085397 0.603678 0.000000
0.112834 0.620698 0.000000
0.139374 0.641117 0.000000
0.166100 0.665072 0.000000
0.192385 0.694490 0.000000
0.221125 0.723538 0.000000
0.251028 0.754953 0.000000
0.285749 0.785163 0.000000
0.326898 0.816932 0.000000
0.376202 0.846106 0.000000
0.436565 0.872053 0.000000
0.510264 0.896127 0.000000
0.603678 0.914604 0.000000
0.717916 0.930737 0.000000
0.851918 0.939232 0.000000
1.000000 0.943509 0.000000
0.000000 0.702118 0.000000
0.023142 0.703718 0.000000
0.046251 0.709540 0.000000
0.069262 0.717915 0.000000
0.092768 0.730283 0.000000
0.116507 0.745217 0.000000
0.141365 0.763175 0.000000
0.167394 0.784593 0.000000
0.196173 0.805685 0.000000
0.227354 0.828532 0.000000
0.263462 0.850848 0.000000
0.306699 0.873399 0.000000
0.358282 0.894466 0.000000
0.420343 0.912780 0.000000
0.496216 0.929686 0.000000
0.592179 0.942529 0.000000
0.709540 0.953750 0.000000
0.847561 0.959842 0.000000
1.000000 0.963525 0.000000
0.000000 0.843049 0.000000
0.019842 0.843879 0.000000
0.040159 0.847563 0.000000
0.060768 0.851921 0.000000
0.082256 0.858711 0.000000
0.104536 0.866846 0.000000
0.128322 0.876386 0.000000
0.153577 0.887827 0.000000
0.182529 0.899511 0.000000
0.214450 0.911044 0.000000
0.250617 0.923002 0.000000
0.295037 0.935058 0.000000
0.347101 0.946088 0.000000
0.409862 0.955582 0.000000
0.486461 0.964414 0.000000
0.583866 0.971075 0.000000
0.703718 0.976859 0.000000
0.843879 0.980157 0.000000
1.000000 0.981467 0.000000
0.000000 1.000000 0.000000
0.018549 1.000000 0.000000
0.036476 1.000000 0.000000
0.056495 1.000000 0.000000
0.076575 1.000000 0.000000
0.098736 1.000000 0.000000
0.121648 1.000000 0.000000
0.147396 1.000000 0.000000
0.176247 1.000000 0.000000
0.208805 1.000000 0.000000
0.245515 1.000000 0.000000
0.290691 1.000000 0.000000
0.343809 1.000000 0.000000
0.406607 1.000000 0.000000
0.483415 1.000000 0.000000
0.581414 1.000000 0.000000
0.702111 1.000000 0.000000
0.843064 1.000000 0.000000
1.000000 1.000000 0.000000
0.000000 0.000000 0.054991
0.156948 0.000000 0.054998
0.297882 0.000000 0.055001
0.418589 0.000000 0.054999
0.516582 0.000000 0.055000
[...]
POINT_DATA 2527 
VECTORS pos float 
0.000000 0.000000 0.000000
0.156954 0.000000 0.000000
0.297881 0.000000 0.000000
0.418590 0.000000 0.000000
0.516582 0.000000 0.000000
0.593395 0.000000 0.000000
0.656189 0.000000 0.000000
0.709309 0.000000 0.000000
0.754483 0.000000 0.000000
0.791196 0.000000 0.000000
0.823756 0.000000 0.000000
0.852607 0.000000 0.000000
0.878301 0.000000 0.000000
0.901322 0.000000 0.000000
0.923406 0.000000 0.000000
0.943541 0.000000 0.000000
0.963479 0.000000 0.000000
0.981487 0.000000 0.000000
1.000000 0.000000 0.000000
0.000000 0.018533 0.000000
0.156112 0.019840 0.000000
0.296285 0.023143 0.000000
0.416132 0.028924 0.000000
0.513540 0.035585 0.000000
0.590137 0.044418 0.000000
0.652899 0.053912 0.000000
0.704964 0.064942 0.000000
0.749382 0.076996 0.000000
0.785552 0.088959 0.000000
0.817476 0.100488 0.000000
0.846418 0.112166 0.000000
0.871670 0.123602 0.000000
0.895472 0.133158 0.000000
0.917743 0.141275 0.000000
0.939240 0.148075 0.000000
0.959827 0.152429 0.000000
0.980162 0.156107 0.000000
1.000000 0.156935 0.000000
0.000000 0.036523 0.000000
0.152429 0.040172 0.000000
0.290462 0.046243 0.000000
0.407820 0.057474 0.000000
0.503785 0.070312 0.000000
0.579656 0.087221 0.000000
0.641718 0.105531 0.000000
0.693301 0.126602 0.000000
0.736539 0.149151 0.000000
0.772645 0.171468 0.000000
0.803824 0.194307 0.000000
0.832609 0.215407 0.000000
0.858643 0.236821 0.000000
0.883488 0.254784 0.000000
0.907230 0.269721 0.000000
0.930735 0.282087 0.000000
0.953759 0.290461 0.000000
0.976856 0.296287 0.000000
1.000000 0.297888 0.000000
0.000000 0.056483 0.000000
0.148073 0.060761 0.000000
0.282087 0.069265 0.000000
0.396320 0.085396 0.000000
0.489735 0.103873 0.000000
0.563437 0.127948 0.000000
0.623797 0.153894 0.000000
0.673103 0.183068 0.000000
0.714250 0.214837 0.000000
0.748973 0.245047 0.000000
0.778877 0.276467 0.000000
0.807614 0.305510 0.000000
0.833896 0.334927 0.000000
0.860628 0.358886 0.000000
0.887168 0.379300 0.000000
0.914604 0.396322 0.000000
0.942525 0.407820 0.000000
0.971076 0.416131 0.000000
1.000000 0.418586 0.000000
0.000000 0.076560 0.000000
0.141288 0.082255 0.000000
0.269718 0.092771 0.000000
0.379302 0.112832 0.000000
0.470388 0.136500 0.000000
0.541111 0.166302 0.000000
0.599428 0.198289 0.000000
0.646678 0.233965 0.000000
0.685492 0.272775 0.000000
0.718846 0.310769 0.000000
0.748683 0.347556 0.000000
0.777568 0.382193 0.000000
0.803735 0.417763 0.000000
0.833162 0.446344 0.000000
0.863498 0.470392 0.000000
0.896127 0.489738 0.000000
0.929689 0.503783 0.000000
0.964414 0.513542 0.000000
1.000000 0.516584 0.000000
0.000000 0.098681 0.000000
0.133159 0.104530 0.000000
0.254779 0.116510 0.000000
0.358883 0.139373 0.000000
0.446342 0.166838 0.000000
0.513620 0.201275 0.000000
0.570141 0.237562 0.000000
0.614006 0.278687 0.000000
0.649370 0.322570 0.000000
0.681628 0.364730 0.000000
0.710259 0.407047 0.000000
0.738949 0.444673 0.000000
0.766290 0.482001 0.000000
0.798726 0.513616 0.000000
0.833699 0.541108 0.000000
0.872053 0.563434 0.000000
0.912778 0.579656 0.000000
0.955582 0.590136 0.000000
1.000000 0.593393 0.000000
0.000000 0.121707 0.000000
0.123617 0.128328 0.000000
0.236829 0.141361 0.000000
0.334929 0.166103 0.000000
0.417762 0.196265 0.000000
0.481997 0.233711 0.000000
0.537268 0.274074 0.000000
0.577120 0.319034 0.000000
0.609456 0.366992 0.000000
0.640728 0.412066 0.000000
0.667809 0.457821 0.000000
0.697079 0.498597 0.000000
0.725925 0.537266 0.000000
0.762438 0.570144 0.000000
0.801711 0.599429 0.000000
0.846106 0.623798 0.000000
0.894469 0.641717 0.000000
0.946089 0.652900 0.000000
1.000000 0.656189 0.000000
0.000000 0.147405 0.000000
0.112173 0.153579 0.000000
0.215407 0.167392 0.000000
0.305510 0.192386 0.000000
0.382194 0.222432 0.000000
0.444673 0.261051 0.000000
0.498598 0.302921 0.000000
0.535289 0.348366 0.000000
0.565779 0.396529 0.000000
0.595458 0.444282 0.000000
0.622312 0.491205 0.000000
0.651634 0.535290 0.000000
0.680967 0.577119 0.000000
0.721313 0.614006 0.000000
0.766035 0.646679 0.000000
0.816932 0.673102 0.000000
0.873399 0.693302 0.000000
0.935057 0.704963 0.000000
1.000000 0.709311 0.000000
0.000000 0.176238 0.000000
0.100491 0.182527 0.000000
0.194314 0.196174 0.000000
0.276464 0.221124 0.000000
0.347559 0.251316 0.000000
0.407045 0.289741 0.000000
0.457821 0.332190 0.000000
0.491207 0.377690 0.000000
0.520872 0.424747 0.000000
0.548445 0.472996 0.000000
0.575252 0.520877 0.000000
0.603471 0.565777 0.000000
0.633007 0.609457 0.000000
0.677430 0.649370 0.000000
0.727225 0.685491 0.000000
0.785163 0.714251 0.000000
0.850848 0.736538 0.000000
0.923003 0.749383 0.000000
1.000000 0.754482 0.000000
0.000000 0.208801 0.000000
0.088955 0.214449 0.000000
0.171468 0.227355 0.000000
0.245047 0.251027 0.000000
0.310769 0.281153 0.000000
0.364730 0.318373 0.000000
0.412065 0.359273 0.000000
0.444285 0.404541 0.000000
0.472998 0.451558 0.000000
0.499995 0.500003 0.000000
0.527003 0.548441 0.000000
0.555716 0.595459 0.000000
0.587935 0.640727 0.000000
0.635270 0.681627 0.000000
0.689231 0.718847 0.000000
0.754953 0.748972 0.000000
0.828532 0.772646 0.000000
0.911042 0.785551 0.000000
1.000000 0.791201 0.000000
0.000000 0.245519 0.000000
0.076998 0.250617 0.000000
0.149151 0.263461 0.000000
0.214837 0.285749 0.000000
0.272775 0.314509 0.000000
0.322570 0.350630 0.000000
0.366992 0.390545 0.000000
0.396528 0.434220 0.000000
0.424746 0.479132 0.000000
0.451563 0.527000 0.000000
0.479126 0.575252 0.000000
0.508794 0.622311 0.000000
0.542177 0.667810 0.000000
0.592956 0.710259 0.000000
0.652440 0.748684 0.000000
0.723538 0.778876 0.000000
0.805685 0.803827 0.000000
0.899520 0.817473 0.000000
1.000000 0.823761 0.000000
0.000000 0.290689 0.000000
0.064941 0.295037 0.000000
0.126601 0.306699 0.000000
0.183068 0.326897 0.000000
0.233965 0.353322 0.000000
0.278687 0.385994 0.000000
0.319034 0.422880 0.000000
0.348367 0.464711 0.000000
0.377690 0.508791 0.000000
0.404539 0.555717 0.000000
0.434222 0.603471 0.000000
0.464710 0.651634 0.000000
0.501402 0.697080 0.000000
0.555328 0.738949 0.000000
0.617805 0.777569 0.000000
0.694491 0.807614 0.000000
0.784592 0.832609 0.000000
0.887834 0.846422 0.000000
1.000000 0.852595 0.000000
0.000000 0.343812 0.000000
0.053912 0.347101 0.000000
0.105534 0.358282 0.000000
0.153894 0.376202 0.000000
0.198287 0.400572 0.000000
0.237562 0.429857 0.000000
0.274076 0.462733 0.000000
0.302920 0.501402 0.000000
0.332190 0.542179 0.000000
0.359274 0.587934 0.000000
0.390544 0.633008 0.000000
0.422880 0.680966 0.000000
0.462730 0.725925 0.000000
0.518005 0.766290 0.000000
0.582233 0.803734 0.000000
0.665072 0.833899 0.000000
0.763166 0.858634 0.000000
0.876397 0.871677 0.000000
1.000000 0.878333 0.000000
0.000000 0.406605 0.000000
0.044417 0.409862 0.000000
0.087219 0.420343 0.000000
0.127948 0.436565 0.000000
0.166304 0.458890 0.000000
0.201276 0.486382 0.000000
0.233709 0.518002 0.000000
0.261051 0.555327 0.000000
0.289742 0.592957 0.000000
0.318373 0.635270 0.000000
0.350630 0.677430 0.000000
0.385994 0.721313 0.000000
0.429857 0.762438 0.000000
0.486383 0.798725 0.000000
0.553658 0.833162 0.000000
0.641119 0.860626 0.000000
0.745220 0.883493 0.000000
0.866844 0.895464 0.000000
1.000000 0.901278 0.000000
0.000000 0.483419 0.000000
0.035586 0.486461 0.000000
0.070315 0.496215 0.000000
0.103871 0.510264 0.000000
0.136497 0.529613 0.000000
0.166837 0.553655 0.000000
0.196268 0.582237 0.000000
0.222432 0.617806 0.000000
0.251316 0.652440 0.000000
0.281153 0.689231 0.000000
0.314509 0.727225 0.000000
0.353322 0.766035 0.000000
0.400573 0.801713 0.000000
0.458889 0.833696 0.000000
0.529613 0.863503 0.000000
0.620697 0.887165 0.000000
0.730283 0.907232 0.000000
0.858710 0.917744 0.000000
1.000000 0.923428 0.000000
0.000000 0.581411 0.000000
0.028925 0.583866 0.000000
0.057470 0.592180 0.000000
0.085397 0.603678 0.000000
0.112834 0.620698 0.000000
0.139374 0.641117 0.000000
0.166100 0.665072 0.000000
0.192385 0.694490 0.000000
0.221125 0.723538 0.000000
0.251028 0.754953 0.000000
0.285749 0.785163 0.000000
0.326898 0.816932 0.000000
0.376202 0.846106 0.000000
0.436565 0.872053 0.000000
0.510264 0.896127 0.000000
0.603678 0.914604 0.000000
0.717916 0.930737 0.000000
0.851918 0.939232 0.000000
1.000000 0.943509 0.000000
0.000000 0.702118 0.000000
0.023142 0.703718 0.000000
0.046251 0.709540 0.000000
0.069262 0.717915 0.000000
0.092768 0.730283 0.000000
0.116507 0.745217 0.000000
0.141365 0.763175 0.000000
0.167394 0.784593 0.000000
0.196173 0.805685 0.000000
0.227354 0.828532 0.000000
0.263462 0.850848 0.000000
0.306699 0.873399 0.000000
0.358282 0.894466 0.000000
0.420343 0.912780 0.000000
0.496216 0.929686 0.000000
0.592179 0.942529 0.000000
0.709540 0.953750 0.000000
0.847561 0.959842 0.000000
1.000000 0.963525 0.000000
0.000000 0.843049 0.000000
0.019842 0.843879 0.000000
0.040159 0.847563 0.000000
0.060768 0.851921 0.000000
0.082256 0.858711 0.000000
0.104536 0.866846 0.000000
0.128322 0.876386 0.000000
0.153577 0.887827 0.000000
0.182529 0.899511 0.000000
0.214450 0.911044 0.000000
0.250617 0.923002 0.000000
0.295037 0.935058 0.000000
0.347101 0.946088 0.000000
0.409862 0.955582 0.000000
0.486461 0.964414 0.000000
0.583866 0.971075 0.000000
0.703718 0.976859 0.000000
0.843879 0.980157 0.000000
1.000000 0.981467 0.000000
0.000000 1.000000 0.000000
0.018549 1.000000 0.000000
0.036476 1.000000 0.000000
0.056495 1.000000 0.000000
0.076575 1.000000 0.000000
0.098736 1.000000 0.000000
0.121648 1.000000 0.000000
0.147396 1.000000 0.000000
0.176247 1.000000 0.000000
0.208805 1.000000 0.000000
0.245515 1.000000 0.000000
0.290691 1.000000 0.000000
0.343809 1.000000 0.000000
0.406607 1.000000 0.000000
0.483415 1.000000 0.000000
0.581414 1.000000 0.000000
0.702111 1.000000 0.000000
0.843064 1.000000 0.000000
1.000000 1.000000 0.000000
0.000000 0.000000 0.054991
0.156948 0.000000 0.054998
0.297882 0.000000 0.055001
0.418589 0.000000 0.054999
0.516582 0.000000 0.055000
0.593394 0.000000 0.055000
0.656190 0.000000 0.055001
0.709309 0.000000 0.054999
0.754484 0.000000 0.055001
0.791198 0.000000 0.055001
0.823759 0.000000 0.054998
0.852591 0.000000 0.054991
0.878332 0.000000 0.055009
0.901262 0.000000 0.055012
0.923462 0.000000 0.054990
0.943443 0.000000 0.054996
0.963562 0.000000 0.055002
0.981496 0.000000 0.055003
1.000000 0.000000 0.054990
0.000000 0.018481 0.055000
0.156109 0.019839 0.055001
0.296287 0.023143 0.055000
0.416131 0.028924 0.055000
0.513541 0.035585 0.055000
0.590137 0.044418 0.055000
0.652900 0.053910 0.055000
0.704963 0.064942 0.055000
0.749383 0.076995 0.055000
0.785552 0.088959 0.055000
0.817477 0.100480 0.055001
0.846417 0.112164 0.055000
0.871677 0.123616 0.055001
0.895465 0.133163 0.055001
0.917744 0.141287 0.055000
0.939236 0.148076 0.054999
0.959832 0.152436 0.055001
0.980159 0.156109 0.055001
1.000000 0.156959 0.054997
0.000000 0.036435 0.055005
0.152439 0.040170 0.055001
0.290457 0.046243 0.055000
0.407823 0.057474 0.055000
0.503782 0.070310 0.055000
0.579657 0.087221 0.055000
0.641716 0.105531 0.055000
0.693302 0.126602 0.055000
0.736538 0.149151 0.055000
0.772646 0.171468 0.055000
0.803825 0.194309 0.055000
0.832609 0.215405 0.055001
0.858634 0.236828 0.054998
0.883493 0.254777 0.054999
0.907230 0.269718 0.055001
0.930737 0.282084 0.055001
0.953756 0.290458 0.055000
0.976858 0.296286 0.054999
1.000000 0.297879 0.055001
0.000000 0.056559 0.054995
0.148080 0.060763 0.054999
0.282083 0.069264 0.055000
0.396323 0.085396 0.055000
0.489737 0.103875 0.055000
0.563436 0.127947 0.055000
0.623798 0.153894 0.055000
0.673103 0.183068 0.055000
0.714251 0.214837 0.055000
0.748973 0.245047 0.055000
0.778877 0.276465 0.055000
0.807613 0.305510 0.054999
0.833899 0.334929 0.055000
0.860626 0.358883 0.055001
0.887166 0.379302 0.055000
0.914604 0.396321 0.054999
0.942526 0.407822 0.055000
0.971076 0.416132 0.055000
1.000000 0.418591 0.054999
0.000000 0.076564 0.054987
0.141281 0.082259 0.055000
0.269720 0.092769 0.055000
0.379301 0.112833 0.055000
0.470391 0.136500 0.055000
0.541109 0.166302 0.055000
0.599429 0.198289 0.055000
0.646678 0.233965 0.055000
0.685491 0.272775 0.055000
0.718847 0.310769 0.055000
0.748683 0.347557 0.055000
0.777569 0.382194 0.055001
0.803733 0.417762 0.055000
0.833163 0.446340 0.055000
0.863501 0.470389 0.055000
0.896126 0.489736 0.055000
0.929689 0.503783 0.055000
0.964415 0.513540 0.055000
1.000000 0.516581 0.055000
0.000000 0.098733 0.055010
0.133163 0.104532 0.055000
0.254780 0.116510 0.055000
0.358885 0.139373 0.055000
0.446340 0.166838 0.055000
0.513618 0.201275 0.055000
0.570142 0.237562 0.055000
0.614006 0.278687 0.055000
0.649370 0.322570 0.055000
0.681628 0.364730 0.055000
0.710259 0.407046 0.055000
0.738949 0.444673 0.055000
0.766291 0.481999 0.055000
0.798724 0.513620 0.055000
0.833698 0.541111 0.055000
0.872052 0.563437 0.055000
0.912779 0.579657 0.055000
0.955582 0.590137 0.055000
1.000000 0.593395 0.055000
0.000000 0.121660 0.055007
0.123606 0.128327 0.055000
0.236822 0.141361 0.055000
0.334931 0.166103 0.055001
0.417763 0.196265 0.055000
0.481999 0.233710 0.055000
0.537267 0.274075 0.055000
0.577119 0.319034 0.055000
0.609456 0.366992 0.055000
0.640727 0.412066 0.055000
0.667809 0.457821 0.055000
0.697080 0.498598 0.055000
0.725924 0.537267 0.055000
0.762439 0.570141 0.055000
0.801711 0.599428 0.055000
0.846106 0.623797 0.055000
0.894469 0.641717 0.055000
0.946090 0.652900 0.055000
1.000000 0.656187 0.055000
0.000000 0.147402 0.054994
0.112164 0.153583 0.054999
0.215406 0.167391 0.055001
0.305510 0.192386 0.055000
0.382193 0.222432 0.055000
0.444673 0.261051 0.055000
0.498598 0.302921 0.055000
0.535289 0.348366 0.055000
0.565779 0.396529 0.055000
0.595459 0.444283 0.055000
0.622312 0.491205 0.055000
0.651634 0.535290 0.055000
0.680967 0.577119 0.055000
0.721313 0.614006 0.055000
0.766035 0.646678 0.055000
0.816932 0.673102 0.055000
0.873398 0.693302 0.055000
0.935056 0.704963 0.055000
1.000000 0.709312 0.055000
0.000000 0.176240 0.054997
0.100482 0.182523 0.054999
0.194307 0.196176 0.055001
0.276467 0.221123 0.055000
0.347556 0.251317 0.055000
0.407046 0.289741 0.055000
0.457820 0.332191 0.055000
0.491206 0.377688 0.055000
0.520874 0.424746 0.055000
0.548444 0.472996 0.055000
0.575255 0.520873 0.055000
0.603472 0.565779 0.055000
0.633008 0.609456 0.055000
0.677430 0.649370 0.055000
0.727225 0.685491 0.055000
0.785163 0.714251 0.055000
0.850849 0.736538 0.055000
0.923005 0.749383 0.055000
1.000000 0.754479 0.055001
0.000000 0.208804 0.055001
0.088960 0.214448 0.055000
0.171468 0.227355 0.055000
0.245047 0.251027 0.055000
0.310769 0.281153 0.055000
0.364730 0.318372 0.055000
0.412066 0.359274 0.055000
0.444283 0.404539 0.055000
0.472998 0.451558 0.055000
0.499999 0.499998 0.055000
0.527003 0.548445 0.055000
0.555717 0.595461 0.055000
0.587935 0.640726 0.055000
0.635270 0.681628 0.055000
0.689231 0.718847 0.055000
0.754953 0.748973 0.055000
0.828532 0.772645 0.055000
0.911040 0.785552 0.055000
1.000000 0.791207 0.054998
0.000000 0.245516 0.055000
0.076995 0.250617 0.055000
0.149151 0.263461 0.055000
0.214837 0.285749 0.055000
0.272775 0.314508 0.055000
0.322570 0.350630 0.055000
0.366992 0.390544 0.055000
0.396529 0.434221 0.055000
0.424743 0.479128 0.055000
0.451559 0.527003 0.055000
0.479127 0.575257 0.055000
0.508794 0.622311 0.055000
0.542179 0.667810 0.055000
0.592955 0.710259 0.055000
0.652442 0.748684 0.055000
0.723536 0.778876 0.055000
0.805690 0.803826 0.055000
0.899525 0.817476 0.055000
1.000000 0.823761 0.055002
0.000000 0.290691 0.055000
0.064943 0.295037 0.055000
0.126602 0.306699 0.055000
0.183068 0.326897 0.055000
0.233965 0.353322 0.055000
0.278687 0.385994 0.055000
0.319033 0.422880 0.055000
0.348367 0.464711 0.055000
0.377689 0.508793 0.055000
0.404538 0.555717 0.055000
0.434223 0.603471 0.055000
0.464710 0.651634 0.055000
0.501402 0.697079 0.055000
0.555327 0.738949 0.055000
0.617806 0.777568 0.055000
0.694490 0.807614 0.055000
0.784594 0.832608 0.055000
0.887837 0.846417 0.055000
1.000000 0.852584 0.055000
0.000000 0.343811 0.055000
0.053910 0.347101 0.055001
0.105534 0.358281 0.055000
0.153893 0.376200 0.055000
0.198287 0.400572 0.055000
0.237561 0.429858 0.055000
0.274077 0.462735 0.055000
0.302920 0.501402 0.055000
0.332190 0.542179 0.055000
0.359274 0.587934 0.055000
0.390544 0.633008 0.055000
0.422881 0.680966 0.055000
0.462735 0.725924 0.055000
0.517999 0.766292 0.055000
0.582241 0.803730 0.055000
0.665072 0.833902 0.055000
0.763179 0.858633 0.055001
0.876384 0.871680 0.054998
1.000000 0.878287 0.054999
0.000000 0.406604 0.055000
0.044418 0.409863 0.055000
0.087219 0.420346 0.055000
0.127948 0.436566 0.055000
0.166304 0.458888 0.055000
0.201277 0.486380 0.055000
0.233708 0.517999 0.055000
0.261051 0.555328 0.055000
0.289741 0.592956 0.055000
0.318373 0.635270 0.055000
0.350630 0.677430 0.055000
0.385994 0.721313 0.055000
0.429857 0.762439 0.055000
0.486381 0.798724 0.055000
0.553654 0.833164 0.055000
0.641119 0.860627 0.055000
0.745214 0.883492 0.055000
0.866848 0.895466 0.055001
1.000000 0.901322 0.055000
0.000000 0.483421 0.055000
0.035585 0.486460 0.055001
0.070315 0.496213 0.055000
0.103872 0.510260 0.055000
0.136496 0.529613 0.055000
0.166836 0.553656 0.055000
0.196271 0.582242 0.055000
0.222432 0.617806 0.055000
0.251316 0.652441 0.055000
0.281153 0.689231 0.055000
0.314509 0.727225 0.055000
0.353322 0.766035 0.055000
0.400572 0.801713 0.055000
0.458890 0.833696 0.055000
0.529612 0.863504 0.055000
0.620699 0.887164 0.055000
0.730282 0.907234 0.055000
0.858718 0.917744 0.055000
1.000000 0.923496 0.055004
0.000000 0.581409 0.055000
0.028925 0.583867 0.055000
0.057471 0.592183 0.055000
0.085396 0.603684 0.055000
0.112836 0.620699 0.055000
0.139374 0.641120 0.055000
0.166097 0.665072 0.054999
0.192387 0.694490 0.055000
0.221124 0.723537 0.055000
0.251027 0.754953 0.055000
0.285749 0.785163 0.055000
0.326898 0.816932 0.055000
0.376201 0.846106 0.055000
0.436566 0.872052 0.055000
0.510261 0.896127 0.055001
0.603682 0.914604 0.055000
0.717908 0.930737 0.055000
0.851935 0.939233 0.055000
1.000000 0.943520 0.054998
0.000000 0.702122 0.055000
0.023140 0.703715 0.055001
0.046250 0.709532 0.055000
0.069263 0.717906 0.055000
0.092767 0.730281 0.054999
0.116506 0.745217 0.055000
0.141370 0.763176 0.055002
0.167392 0.784594 0.055000
0.196174 0.805687 0.055000
0.227354 0.828532 0.055000
0.263462 0.850849 0.055000
0.306698 0.873398 0.055000
0.358282 0.894467 0.055001
0.420345 0.912780 0.055000
0.496214 0.929685 0.055000
0.592182 0.942529 0.055000
0.709536 0.953751 0.055000
0.847574 0.959841 0.055001
1.000000 0.963447 0.055002
0.000000 0.843036 0.055000
0.019848 0.843888 0.055000
0.040158 0.847580 0.055001
0.060766 0.851942 0.054999
0.082254 0.858715 0.055001
0.104535 0.866848 0.055001
0.128319 0.876367 0.054999
0.153582 0.887835 0.054999
0.182525 0.899524 0.054999
0.214449 0.911041 0.055000
0.250616 0.923004 0.055000
0.295037 0.935057 0.055000
0.347101 0.946089 0.055000
0.409863 0.955582 0.055000
0.486460 0.964415 0.055000
0.583868 0.971075 0.055000
0.703715 0.976859 0.055001
0.843887 0.980153 0.055000
1.000000 0.981459 0.054997
0.000000 1.000000 0.054998
0.018553 1.000000 0.054995
0.036565 1.000000 0.055005
0.056469 1.000000 0.054994
0.076495 1.000000 0.055007
0.098684 1.000000 0.054998
0.121714 1.000000 0.054996
0.147413 1.000000 0.055002
0.176243 1.000000 0.055000
0.208796 1.000000 0.055000
0.245520 1.000000 0.054999
0.290689 1.000000 0.055001
0.343812 1.000000 0.054999
0.406606 1.000000 0.055000
0.483418 1.000000 0.055000
0.581411 1.000000 0.055000
0.702119 1.000000 0.054999
0.843046 1.000000 0.055000
1.000000 1.000000 0.054998
0.000000 0.000000 0.109989
0.156949 0.000000 0.109998
0.297883 0.000000 0.110001
0.418588 0.000000 0.110000
0.516581 0.000000 0.110000
0.593394 0.000000 0.110000
0.656188 0.000000 0.110000
0.709312 0.000000 0.110000
0.754480 0.000000 0.110000
0.791203 0.000000 0.109999
0.823753 0.000000 0.110002
0.852596 0.000000 0.110007
0.878278 0.000000 0.109995
0.901331 0.000000 0.109995
0.923482 0.000000 0.110000
0.943546 0.000000 0.109994
0.963430 0.000000 0.109997