# vtk DataFile Version 2.0
Mesh for Fierro
ASCII 
DATASET UNSTRUCTURED_GRID

POINTS 2527 float
0.000000 0.000000 0.000000
0.096511 0.000000 0.000000
0.189665 0.000000 0.000000
0.279007 0.000000 0.000000
0.362330 0.000000 0.000000
0.437538 0.000000 0.000000
0.505900 0.000000 0.000000
0.567169 0.000000 0.000000
0.622411 0.000000 0.000000
0.671469 0.000000 0.000000
0.716912 0.000000 0.000000
0.758693 0.000000 0.000000
0.797627 0.000000 0.000000
0.835278 0.000000 0.000000
0.870395 0.000000 0.000000
0.904394 0.000000 0.000000
0.936454 0.000000 0.000000
0.968351 0.000000 0.000000
1.000000 0.000000 0.000000
0.000000 0.031648 0.000000
0.096022 0.032184 0.000000
0.188773 0.033430 0.000000
0.277704 0.035698 0.000000
0.360673 0.038669 0.000000
0.435590 0.042742 0.000000
0.503986 0.047217 0.000000
0.564773 0.052531 0.000000
0.619981 0.058268 0.000000
0.668995 0.063708 0.000000
0.714193 0.069315 0.000000
0.756214 0.074828 0.000000
0.795179 0.080094 0.000000
0.832816 0.084776 0.000000
0.868185 0.088808 0.000000
0.902618 0.092086 0.000000
0.935312 0.094460 0.000000
0.967816 0.096022 0.000000
1.000000 0.096511 0.000000
0.000000 0.063546 0.000000
0.094460 0.064688 0.000000
0.185660 0.067343 0.000000
0.273188 0.071988 0.000000
0.354912 0.077961 0.000000
0.429330 0.085886 0.000000
0.497228 0.094536 0.000000
0.557406 0.104796 0.000000
0.612017 0.115629 0.000000
0.661008 0.126213 0.000000
0.706308 0.137121 0.000000
0.748680 0.147512 0.000000
0.788437 0.158070 0.000000
0.826770 0.167074 0.000000
0.863208 0.174707 0.000000
0.898701 0.181110 0.000000
0.932657 0.185660 0.000000
0.966570 0.188773 0.000000
1.000000 0.189665 0.000000
0.000000 0.095606 0.000000
0.092086 0.097382 0.000000
0.181110 0.101299 0.000000
0.266552 0.108486 0.000000
0.346329 0.117416 0.000000
0.419373 0.128799 0.000000
0.486431 0.141509 0.000000
0.545284 0.156263 0.000000
0.599425 0.171935 0.000000
0.647923 0.187191 0.000000
0.693181 0.202941 0.000000
0.736244 0.217976 0.000000
0.776739 0.233207 0.000000
0.816103 0.246163 0.000000
0.854188 0.257302 0.000000
0.891514 0.266552 0.000000
0.928012 0.273188 0.000000
0.964301 0.277704 0.000000
1.000000 0.279007 0.000000
0.000000 0.129605 0.000000
0.088808 0.131815 0.000000
0.174707 0.136792 0.000000
0.257302 0.145812 0.000000
0.334987 0.157371 0.000000
0.405982 0.171906 0.000000
0.471304 0.188418 0.000000
0.528777 0.207119 0.000000
0.581962 0.226732 0.000000
0.630103 0.246681 0.000000
0.675694 0.266073 0.000000
0.719450 0.285177 0.000000
0.761149 0.304688 0.000000
0.802286 0.321071 0.000000
0.842629 0.334987 0.000000
0.882584 0.346329 0.000000
0.922039 0.354912 0.000000
0.961331 0.360673 0.000000
1.000000 0.362330 0.000000
0.000000 0.164722 0.000000
0.084776 0.167184 0.000000
0.167074 0.173230 0.000000
0.246163 0.183897 0.000000
0.321071 0.197714 0.000000
0.389781 0.215064 0.000000
0.453442 0.234266 0.000000
0.509350 0.256577 0.000000
0.561072 0.280113 0.000000
0.609143 0.303242 0.000000
0.654727 0.326801 0.000000
0.698800 0.348885 0.000000
0.741322 0.370746 0.000000
0.784936 0.389781 0.000000
0.828094 0.405982 0.000000
0.871201 0.419373 0.000000
0.914114 0.429330 0.000000
0.957258 0.435590 0.000000
1.000000 0.437538 0.000000
0.000000 0.202373 0.000000
0.080094 0.204821 0.000000
0.158070 0.211563 0.000000
0.233207 0.223261 0.000000
0.304688 0.238851 0.000000
0.370746 0.258678 0.000000
0.433033 0.280609 0.000000
0.486756 0.305438 0.000000
0.536988 0.332209 0.000000
0.584909 0.357640 0.000000
0.630557 0.384328 0.000000
0.675645 0.409540 0.000000
0.719391 0.433033 0.000000
0.765734 0.453442 0.000000
0.811582 0.471304 0.000000
0.858491 0.486431 0.000000
0.905464 0.497228 0.000000
0.952782 0.503986 0.000000
1.000000 0.505900 0.000000
0.000000 0.241307 0.000000
0.074828 0.243786 0.000000
0.147512 0.251320 0.000000
0.217976 0.263756 0.000000
0.285177 0.280550 0.000000
0.348885 0.301200 0.000000
0.409540 0.324355 0.000000
0.461033 0.350688 0.000000
0.509992 0.378420 0.000000
0.557882 0.406053 0.000000
0.603535 0.433687 0.000000
0.649312 0.461033 0.000000
0.694562 0.486756 0.000000
0.743423 0.509350 0.000000
0.792881 0.528777 0.000000
0.843737 0.545284 0.000000
0.895204 0.557406 0.000000
0.947469 0.564773 0.000000
1.000000 0.567169 0.000000
0.000000 0.283088 0.000000
0.069315 0.285807 0.000000
0.137121 0.293692 0.000000
0.202941 0.306819 0.000000
0.266073 0.324306 0.000000
0.326801 0.345273 0.000000
0.384328 0.369443 0.000000
0.433687 0.396465 0.000000
0.481994 0.424301 0.000000
0.529062 0.453048 0.000000
0.575699 0.481994 0.000000
0.621580 0.509992 0.000000
0.667791 0.536988 0.000000
0.719887 0.561072 0.000000
0.773268 0.581962 0.000000
0.828065 0.599425 0.000000
0.884371 0.612017 0.000000
0.941732 0.619981 0.000000
1.000000 0.622411 0.000000
0.000000 0.328531 0.000000
0.063708 0.331005 0.000000
0.126213 0.338992 0.000000
0.187191 0.352077 0.000000
0.246681 0.369897 0.000000
0.303242 0.390857 0.000000
0.357640 0.415091 0.000000
0.406053 0.442118 0.000000
0.453048 0.470938 0.000000
0.500000 0.500000 0.000000
0.546952 0.529062 0.000000
0.593947 0.557882 0.000000
0.642360 0.584909 0.000000
0.696758 0.609143 0.000000
0.753319 0.630103 0.000000
0.812809 0.647923 0.000000
0.873787 0.661008 0.000000
0.936292 0.668995 0.000000
1.000000 0.671469 0.000000
0.000000 0.377589 0.000000
0.058268 0.380019 0.000000
0.115629 0.387983 0.000000
0.171935 0.400575 0.000000
0.226732 0.418038 0.000000
0.280113 0.438928 0.000000
0.332209 0.463012 0.000000
0.378420 0.490008 0.000000
0.424301 0.518006 0.000000
0.470938 0.546952 0.000000
0.518006 0.575699 0.000000
0.566313 0.603535 0.000000
0.615672 0.630557 0.000000
0.673199 0.654727 0.000000
0.733927 0.675694 0.000000
0.797059 0.693181 0.000000
0.862879 0.706308 0.000000
0.930684 0.714193 0.000000
1.000000 0.716912 0.000000
0.000000 0.432831 0.000000
0.052531 0.435227 0.000000
0.104796 0.442594 0.000000
0.156263 0.454716 0.000000
0.207119 0.471223 0.000000
0.256577 0.490650 0.000000
0.305438 0.513244 0.000000
0.350688 0.538967 0.000000
0.396465 0.566313 0.000000
0.442118 0.593947 0.000000
0.490008 0.621580 0.000000
0.538967 0.649312 0.000000
0.590460 0.675645 0.000000
0.651115 0.698800 0.000000
0.714823 0.719450 0.000000
0.782024 0.736244 0.000000
0.852488 0.748680 0.000000
0.925171 0.756213 0.000000
1.000000 0.758693 0.000000
0.000000 0.494100 0.000000
0.047217 0.496014 0.000000
0.094536 0.502772 0.000000
0.141509 0.513569 0.000000
0.188418 0.528696 0.000000
0.234266 0.546558 0.000000
0.280609 0.566967 0.000000
0.324355 0.590460 0.000000
0.369443 0.615672 0.000000
0.415091 0.642360 0.000000
0.463012 0.667791 0.000000
0.513244 0.694562 0.000000
0.566967 0.719391 0.000000
0.629254 0.741322 0.000000
0.695312 0.761149 0.000000
0.766793 0.776739 0.000000
0.841930 0.788437 0.000000
0.919906 0.795179 0.000000
1.000000 0.797627 0.000000
0.000000 0.562462 0.000000
0.042742 0.564410 0.000000
0.085886 0.570670 0.000000
0.128799 0.580627 0.000000
0.171906 0.594018 0.000000
0.215064 0.610219 0.000000
0.258678 0.629254 0.000000
0.301200 0.651115 0.000000
0.345273 0.673199 0.000000
0.390857 0.696758 0.000000
0.438928 0.719887 0.000000
0.490650 0.743423 0.000000
0.546558 0.765734 0.000000
0.610219 0.784936 0.000000
0.678929 0.802286 0.000000
0.753837 0.816103 0.000000
0.832926 0.826770 0.000000
0.915223 0.832816 0.000000
1.000000 0.835278 0.000000
0.000000 0.637670 0.000000
0.038669 0.639327 0.000000
0.077961 0.645088 0.000000
0.117416 0.653671 0.000000
0.157371 0.665013 0.000000
0.197714 0.678929 0.000000
0.238851 0.695312 0.000000
0.280550 0.714823 0.000000
0.324306 0.733927 0.000000
0.369897 0.753319 0.000000
0.418038 0.773268 0.000000
0.471223 0.792881 0.000000
0.528696 0.811582 0.000000
0.594018 0.828094 0.000000
0.665013 0.842629 0.000000
0.742698 0.854188 0.000000
0.825293 0.863208 0.000000
0.911192 0.868185 0.000000
1.000000 0.870395 0.000000
0.000000 0.720993 0.000000
0.035698 0.722296 0.000000
0.071988 0.726812 0.000000
0.108486 0.733448 0.000000
0.145812 0.742698 0.000000
0.183897 0.753837 0.000000
0.223261 0.766793 0.000000
0.263756 0.782024 0.000000
0.306819 0.797059 0.000000
0.352077 0.812809 0.000000
0.400575 0.828065 0.000000
0.454716 0.843737 0.000000
0.513569 0.858491 0.000000
0.580627 0.871201 0.000000
0.653671 0.882584 0.000000
0.733448 0.891514 0.000000
0.818890 0.898701 0.000000
0.907913 0.902618 0.000000
1.000000 0.904394 0.000000
0.000000 0.810335 0.000000
0.033430 0.811227 0.000000
0.067343 0.814340 0.000000
0.101299 0.818890 0.000000
0.136792 0.825293 0.000000
0.173230 0.832926 0.000000
0.211563 0.841930 0.000000
0.251320 0.852488 0.000000
0.293692 0.862879 0.000000
0.338992 0.873787 0.000000
0.387983 0.884371 0.000000
0.442594 0.895204 0.000000
0.502772 0.905464 0.000000
0.570670 0.914114 0.000000
0.645088 0.922039 0.000000
0.726812 0.928012 0.000000
0.814340 0.932657 0.000000
0.905539 0.935312 0.000000
1.000000 0.936454 0.000000
0.000000 0.903489 0.000000
0.032184 0.903977 0.000000
0.064688 0.905539 0.000000
0.097382 0.907913 0.000000
0.131815 0.911192 0.000000
0.167184 0.915223 0.000000
0.204821 0.919906 0.000000
0.243787 0.925171 0.000000
0.285807 0.930684 0.000000
0.331005 0.936292 0.000000
0.380019 0.941732 0.000000
0.435227 0.947469 0.000000
0.496014 0.952782 0.000000
0.564410 0.957258 0.000000
0.639327 0.961331 0.000000
0.722296 0.964301 0.000000
0.811227 0.966570 0.000000
0.903977 0.967816 0.000000
1.000000 0.968351 0.000000
0.000000 1.000000 0.000000
0.031648 1.000000 0.000000
0.063546 1.000000 0.000000
0.095606 1.000000 0.000000
0.129605 1.000000 0.000000
0.164722 1.000000 0.000000
0.202373 1.000000 0.000000
0.241307 1.000000 0.000000
0.283088 1.000000 0.000000
0.328531 1.000000 0.000000
0.377589 1.000000 0.000000
0.432831 1.000000 0.000000
0.494100 1.000000 0.000000
0.562462 1.000000 0.000000
0.637670 1.000000 0.000000
0.720993 1.000000 0.000000
0.810335 1.000000 0.000000
0.903489 1.000000 0.000000
1.000000 1.000000 0.000000
0.000000 0.000000 0.055000
0.096511 0.000000 0.055000
0.189665 0.000000 0.055000
0.279007 0.000000 0.055000
0.362330 0.000000 0.055000
[...]
POINT_DATA 2527 
VECTORS pos float 
0.000000 0.000000 0.000000
0.096511 0.000000 0.000000
0.189665 0.000000 0.000000
0.279007 0.000000 0.000000
0.362330 0.000000 0.000000
0.437538 0.000000 0.000000
0.505900 0.000000 0.000000
0.567169 0.000000 0.000000
0.622411 0.000000 0.000000
0.671469 0.000000 0.000000
0.716912 0.000000 0.000000
0.758693 0.000000 0.000000
0.797627 0.000000 0.000000
0.835278 0.000000 0.000000
0.870395 0.000000 0.000000
0.904394 0.000000 0.000000
0.936454 0.000000 0.000000
0.968351 0.000000 0.000000
1.000000 0.000000 0.000000
0.000000 0.031648 0.000000
0.096022 0.032184 0.000000
0.188773 0.033430 0.000000
0.277704 0.035698 0.000000
0.360673 0.038669 0.000000
0.435590 0.042742 0.000000
0.503986 0.047217 0.000000
0.564773 0.052531 0.000000
0.619981 0.058268 0.000000
0.668995 0.063708 0.000000
0.714193 0.069315 0.000000
0.756214 0.074828 0.000000
0.795179 0.080094 0.000000
0.832816 0.084776 0.000000
0.868185 0.088808 0.000000
0.902618 0.092086 0.000000
0.935312 0.094460 0.000000
0.967816 0.096022 0.000000
1.000000 0.096511 0.000000
0.000000 0.063546 0.000000
0.094460 0.064688 0.000000
0.185660 0.067343 0.000000
0.273188 0.071988 0.000000
0.354912 0.077961 0.000000
0.429330 0.085886 0.000000
0.497228 0.094536 0.000000
0.557406 0.104796 0.000000
0.612017 0.115629 0.000000
0.661008 0.126213 0.000000
0.706308 0.137121 0.000000
0.748680 0.147512 0.000000
0.788437 0.158070 0.000000
0.826770 0.167074 0.000000
0.863208 0.174707 0.000000
0.898701 0.181110 0.000000
0.932657 0.185660 0.000000
0.966570 0.188773 0.000000
1.000000 0.189665 0.000000
0.000000 0.095606 0.000000
0.092086 0.097382 0.000000
0.181110 0.101299 0.000000
0.266552 0.108486 0.000000
0.346329 0.117416 0.000000
0.419373 0.128799 0.000000
0.486431 0.141509 0.000000
0.545284 0.156263 0.000000
0.599425 0.171935 0.000000
0.647923 0.187191 0.000000
0.693181 0.202941 0.000000
0.736244 0.217976 0.000000
0.776739 0.233207 0.000000
0.816103 0.246163 0.000000
0.854188 0.257302 0.000000
0.891514 0.266552 0.000000
0.928012 0.273188 0.000000
0.964301 0.277704 0.000000
1.000000 0.279007 0.000000
0.000000 0.129605 0.000000
0.088808 0.131815 0.000000
0.174707 0.136792 0.000000
0.257302 0.145812 0.000000
0.334987 0.157371 0.000000
0.405982 0.171906 0.000000
0.471304 0.188418 0.000000
0.528777 0.207119 0.000000
0.581962 0.226732 0.000000
0.630103 0.246681 0.000000
0.675694 0.266073 0.000000
0.719450 0.285177 0.000000
0.761149 0.304688 0.000000
0.802286 0.321071 0.000000
0.842629 0.334987 0.000000
0.882584 0.346329 0.000000
0.922039 0.354912 0.000000
0.961331 0.360673 0.000000
1.000000 0.362330 0.000000
0.000000 0.164722 0.000000
0.084776 0.167184 0.000000
0.167074 0.173230 0.000000
0.246163 0.183897 0.000000
0.321071 0.197714 0.000000
0.389781 0.215064 0.000000
0.453442 0.234266 0.000000
0.509350 0.256577 0.000000
0.561072 0.280113 0.000000
0.609143 0.303242 0.000000
0.654727 0.326801 0.000000
0.698800 0.348885 0.000000
0.741322 0.370746 0.000000
0.784936 0.389781 0.000000
0.828094 0.405982 0.000000
0.871201 0.419373 0.000000
0.914114 0.429330 0.000000
0.957258 0.435590 0.000000
1.000000 0.437538 0.000000
0.000000 0.202373 0.000000
0.080094 0.204821 0.000000
0.158070 0.211563 0.000000
0.233207 0.223261 0.000000
0.304688 0.238851 0.000000
0.370746 0.258678 0.000000
0.433033 0.280609 0.000000
0.486756 0.305438 0.000000
0.536988 0.332209 0.000000
0.584909 0.357640 0.000000
0.630557 0.384328 0.000000
0.675645 0.409540 0.000000
0.719391 0.433033 0.000000
0.765734 0.453442 0.000000
0.811582 0.471304 0.000000
0.858491 0.486431 0.000000
0.905464 0.497228 0.000000
0.952782 0.503986 0.000000
1.000000 0.505900 0.000000
0.000000 0.241307 0.000000
0.074828 0.243786 0.000000
0.147512 0.251320 0.000000
0.217976 0.263756 0.000000
0.285177 0.280550 0.000000
0.348885 0.301200 0.000000
0.409540 0.324355 0.000000
0.461033 0.350688 0.000000
0.509992 0.378420 0.000000
0.557882 0.406053 0.000000
0.603535 0.433687 0.000000
0.649312 0.461033 0.000000
0.694562 0.486756 0.000000
0.743423 0.509350 0.000000
0.792881 0.528777 0.000000
0.843737 0.545284 0.000000
0.895204 0.557406 0.000000
0.947469 0.564773 0.000000
1.000000 0.567169 0.000000
0.000000 0.283088 0.000000
0.069315 0.285807 0.000000
0.137121 0.293692 0.000000
0.202941 0.306819 0.000000
0.266073 0.324306 0.000000
0.326801 0.345273 0.000000
0.384328 0.369443 0.000000
0.433687 0.396465 0.000000
0.481994 0.424301 0.000000
0.529062 0.453048 0.000000
0.575699 0.481994 0.000000
0.621580 0.509992 0.000000
0.667791 0.536988 0.000000
0.719887 0.561072 0.000000
0.773268 0.581962 0.000000
0.828065 0.599425 0.000000
0.884371 0.612017 0.000000
0.941732 0.619981 0.000000
1.000000 0.622411 0.000000
0.000000 0.328531 0.000000
0.063708 0.331005 0.000000
0.126213 0.338992 0.000000
0.187191 0.352077 0.000000
0.246681 0.369897 0.000000
0.303242 0.390857 0.000000
0.357640 0.415091 0.000000
0.406053 0.442118 0.000000
0.453048 0.470938 0.000000
0.500000 0.500000 0.000000
0.546952 0.529062 0.000000
0.593947 0.557882 0.000000
0.642360 0.584909 0.000000
0.696758 0.609143 0.000000
0.753319 0.630103 0.000000
0.812809 0.647923 0.000000
0.873787 0.661008 0.000000
0.936292 0.668995 0.000000
1.000000 0.671469 0.000000
0.000000 0.377589 0.000000
0.058268 0.380019 0.000000
0.115629 0.387983 0.000000
0.171935 0.400575 0.000000
0.226732 0.418038 0.000000
0.280113 0.438928 0.000000
0.332209 0.463012 0.000000
0.378420 0.490008 0.000000
0.424301 0.518006 0.000000
0.470938 0.546952 0.000000
0.518006 0.575699 0.000000
0.566313 0.603535 0.000000
0.615672 0.630557 0.000000
0.673199 0.654727 0.000000
0.733927 0.675694 0.000000
0.797059 0.693181 0.000000
0.862879 0.706308 0.000000
0.930684 0.714193 0.000000
1.000000 0.716912 0.000000
0.000000 0.432831 0.000000
0.052531 0.435227 0.000000
0.104796 0.442594 0.000000
0.156263 0.454716 0.000000
0.207119 0.471223 0.000000
0.256577 0.490650 0.000000
0.305438 0.513244 0.000000
0.350688 0.538967 0.000000
0.396465 0.566313 0.000000
0.442118 0.593947 0.000000
0.490008 0.621580 0.000000
0.538967 0.649312 0.000000
0.590460 0.675645 0.000000
0.651115 0.698800 0.000000
0.714823 0.719450 0.000000
0.782024 0.736244 0.000000
0.852488 0.748680 0.000000
0.925171 0.756213 0.000000
1.000000 0.758693 0.000000
0.000000 0.494100 0.000000
0.047217 0.496014 0.000000
0.094536 0.502772 0.000000
0.141509 0.513569 0.000000
0.188418 0.528696 0.000000
0.234266 0.546558 0.000000
0.280609 0.566967 0.000000
0.324355 0.590460 0.000000
0.369443 0.615672 0.000000
0.415091 0.642360 0.000000
0.463012 0.667791 0.000000
0.513244 0.694562 0.000000
0.566967 0.719391 0.000000
0.629254 0.741322 0.000000
0.695312 0.761149 0.000000
0.766793 0.776739 0.000000
0.841930 0.788437 0.000000
0.919906 0.795179 0.000000
1.000000 0.797627 0.000000
0.000000 0.562462 0.000000
0.042742 0.564410 0.000000
0.085886 0.570670 0.000000
0.128799 0.580627 0.000000
0.171906 0.594018 0.000000
0.215064 0.610219 0.000000
0.258678 0.629254 0.000000
0.301200 0.651115 0.000000
0.345273 0.673199 0.000000
0.390857 0.696758 0.000000
0.438928 0.719887 0.000000
0.490650 0.743423 0.000000
0.546558 0.765734 0.000000
0.610219 0.784936 0.000000
0.678929 0.802286 0.000000
0.753837 0.816103 0.000000
0.832926 0.826770 0.000000
0.915223 0.832816 0.000000
1.000000 0.835278 0.000000
0.000000 0.637670 0.000000
0.038669 0.639327 0.000000
0.077961 0.645088 0.000000
0.117416 0.653671 0.000000
0.157371 0.665013 0.000000
0.197714 0.678929 0.000000
0.238851 0.695312 0.000000
0.280550 0.714823 0.000000
0.324306 0.733927 0.000000
0.369897 0.753319 0.000000
0.418038 0.773268 0.000000
0.471223 0.792881 0.000000
0.528696 0.811582 0.000000
0.594018 0.828094 0.000000
0.665013 0.842629 0.000000
0.742698 0.854188 0.000000
0.825293 0.863208 0.000000
0.911192 0.868185 0.000000
1.000000 0.870395 0.000000
0.000000 0.720993 0.000000
0.035698 0.722296 0.000000
0.071988 0.726812 0.000000
0.108486 0.733448 0.000000
0.145812 0.742698 0.000000
0.183897 0.753837 0.000000
0.223261 0.766793 0.000000
0.263756 0.782024 0.000000
0.306819 0.797059 0.000000
0.352077 0.812809 0.000000
0.400575 0.828065 0.000000
0.454716 0.843737 0.000000
0.513569 0.858491 0.000000
0.580627 0.871201 0.000000
0.653671 0.882584 0.000000
0.733448 0.891514 0.000000
0.818890 0.898701 0.000000
0.907913 0.902618 0.000000
1.000000 0.904394 0.000000
0.000000 0.810335 0.000000
0.033430 0.811227 0.000000
0.067343 0.814340 0.000000
0.101299 0.818890 0.000000
0.136792 0.825293 0.000000
0.173230 0.832926 0.000000
0.211563 0.841930 0.000000
0.251320 0.852488 0.000000
0.293692 0.862879 0.000000
0.338992 0.873787 0.000000
0.387983 0.884371 0.000000
0.442594 0.895204 0.000000
0.502772 0.905464 0.000000
0.570670 0.914114 0.000000
0.645088 0.922039 0.000000
0.726812 0.928012 0.000000
0.814340 0.932657 0.000000
0.905539 0.935312 0.000000
1.000000 0.936454 0.000000
0.000000 0.903489 0.000000
0.032184 0.903977 0.000000
0.064688 0.905539 0.000000
0.097382 0.907913 0.000000
0.131815 0.911192 0.000000
0.167184 0.915223 0.000000
0.204821 0.919906 0.000000
0.243787 0.925171 0.000000
0.285807 0.930684 0.000000
0.331005 0.936292 0.000000
0.380019 0.941732 0.000000
0.435227 0.947469 0.000000
0.496014 0.952782 0.000000
0.564410 0.957258 0.000000
0.639327 0.961331 0.000000
0.722296 0.964301 0.000000
0.811227 0.966570 0.000000
0.903977 0.967816 0.000000
1.000000 0.968351 0.000000
0.000000 1.000000 0.000000
0.031648 1.000000 0.000000
0.063546 1.000000 0.000000
0.095606 1.000000 0.000000
0.129605 1.000000 0.000000
0.164722 1.000000 0.000000
0.202373 1.000000 0.000000
0.241307 1.000000 0.000000
0.283088 1.000000 0.000000
0.328531 1.000000 0.000000
0.377589 1.000000 0.000000
0.432831 1.000000 0.000000
0.494100 1.000000 0.000000
0.562462 1.000000 0.000000
0.637670 1.000000 0.000000
0.720993 1.000000 0.000000
0.810335 1.000000 0.000000
0.903489 1.000000 0.000000
1.000000 1.000000 0.000000
0.000000 0.000000 0.055000
0.096511 0.000000 0.055000
0.189665 0.000000 0.055000
0.279007 0.000000 0.055000
0.362330 0.000000 0.055000
0.437538 0.000000 0.055000
0.505900 0.000000 0.055000
0.567169 0.000000 0.055000
0.622411 0.000000 0.055000
0.671469 0.000000 0.055000
0.716912 0.000000 0.055000
0.758693 0.000000 0.055000
0.797627 0.000000 0.055000
0.835278 0.000000 0.055000
0.870395 0.000000 0.055000
0.904394 0.000000 0.055000
0.936454 0.000000 0.055000
0.968351 0.000000 0.055000
1.000000 0.000000 0.055000
0.000000 0.031648 0.055000
0.096022 0.032184 0.055000
0.188773 0.033430 0.055000
0.277704 0.035698 0.055000
0.360673 0.038669 0.055000
0.435590 0.042742 0.055000
0.503986 0.047217 0.055000
0.564773 0.052531 0.055000
0.619981 0.058268 0.055000
0.668995 0.063708 0.055000
0.714193 0.069315 0.055000
0.756214 0.074828 0.055000
0.795179 0.080094 0.055000
0.832816 0.084776 0.055000
0.868185 0.088808 0.055000
0.902618 0.092086 0.055000
0.935312 0.094460 0.055000
0.967816 0.096022 0.055000
1.000000 0.096511 0.055000
0.000000 0.063546 0.055000
0.094460 0.064688 0.055000
0.185660 0.067343 0.055000
0.273188 0.071988 0.055000
0.354912 0.077961 0.055000
0.429330 0.085886 0.055000
0.497228 0.094536 0.055000
0.557406 0.104796 0.055000
0.612017 0.115629 0.055000
0.661008 0.126213 0.055000
0.706308 0.137121 0.055000
0.748680 0.147512 0.055000
0.788437 0.158070 0.055000
0.826770 0.167074 0.055000
0.863208 0.174707 0.055000
0.898701 0.181110 0.055000
0.932657 0.185660 0.055000
0.966570 0.188773 0.055000
1.000000 0.189665 0.055000
0.000000 0.095606 0.055000
0.092086 0.097382 0.055000
0.181110 0.101299 0.055000
0.266552 0.108486 0.055000
0.346329 0.117416 0.055000
0.419373 0.128799 0.055000
0.486431 0.141509 0.055000
0.545284 0.156263 0.055000
0.599425 0.171935 0.055000
0.647923 0.187191 0.055000
0.693181 0.202941 0.055000
0.736244 0.217976 0.055000
0.776739 0.233207 0.055000
0.816103 0.246163 0.055000
0.854188 0.257302 0.055000
0.891514 0.266552 0.055000
0.928012 0.273188 0.055000
0.964301 0.277704 0.055000
1.000000 0.279007 0.055000
0.000000 0.129605 0.055000
0.088808 0.131815 0.055000
0.174707 0.136792 0.055000
0.257302 0.145812 0.055000
0.334987 0.157371 0.055000
0.405982 0.171906 0.055000
0.471304 0.188418 0.055000
0.528777 0.207119 0.055000
0.581962 0.226732 0.055000
0.630103 0.246681 0.055000
0.675694 0.266073 0.055000
0.719450 0.285177 0.055000
0.761149 0.304688 0.055000
0.802286 0.321071 0.055000
0.842629 0.334987 0.055000
0.882584 0.346329 0.055000
0.922039 0.354912 0.055000
0.961331 0.360673 0.055000
1.000000 0.362330 0.055000
0.000000 0.164722 0.055000
0.084776 0.167184 0.055000
0.167074 0.173230 0.055000
0.246163 0.183897 0.055000
0.321071 0.197714 0.055000
0.389781 0.215064 0.055000
0.453442 0.234266 0.055000
0.509350 0.256577 0.055000
0.561072 0.280113 0.055000
0.609143 0.303242 0.055000
0.654727 0.326801 0.055000
0.698800 0.348885 0.055000
0.741322 0.370746 0.055000
0.784936 0.389781 0.055000
0.828094 0.405982 0.055000
0.871201 0.419373 0.055000
0.914114 0.429330 0.055000
0.957258 0.435590 0.055000
1.000000 0.437538 0.055000
0.000000 0.202373 0.055000
0.080094 0.204821 0.055000
0.158070 0.211563 0.055000
0.233207 0.223261 0.055000
0.304688 0.238851 0.055000
0.370746 0.258678 0.055000
0.433033 0.280609 0.055000
0.486756 0.305438 0.055000
0.536988 0.332209 0.055000
0.584909 0.357640 0.055000
0.630557 0.384328 0.055000
0.675645 0.409540 0.055000
0.719391 0.433033 0.055000
0.765734 0.453442 0.055000
0.811582 0.471304 0.055000
0.858491 0.486431 0.055000
0.905464 0.497228 0.055000
0.952782 0.503986 0.055000
1.000000 0.505900 0.055000
0.000000 0.241307 0.055000
0.074828 0.243786 0.055000
0.147512 0.251320 0.055000
0.217976 0.263756 0.055000
0.285177 0.280550 0.055000
0.348885 0.301200 0.055000
0.409540 0.324355 0.055000
0.461033 0.350688 0.055000
0.509992 0.378420 0.055000
0.557882 0.406053 0.055000
0.603535 0.433687 0.055000
0.649312 0.461033 0.055000
0.694562 0.486756 0.055000
0.743423 0.509350 0.055000
0.792881 0.528777 0.055000
0.843737 0.545284 0.055000
0.895204 0.557406 0.055000
0.947469 0.564773 0.055000
1.000000 0.567169 0.055000
0.000000 0.283088 0.055000
0.069315 0.285807 0.055000
0.137121 0.293692 0.055000
0.202941 0.306819 0.055000
0.266073 0.324306 0.055000
0.326801 0.345273 0.055000
0.384328 0.369443 0.055000
0.433687 0.396465 0.055000
0.481994 0.424301 0.055000
0.529062 0.453048 0.055000
0.575699 0.481994 0.055000
0.621580 0.509992 0.055000
0.667791 0.536988 0.055000
0.719887 0.561072 0.055000
0.773268 0.581962 0.055000
0.828065 0.599425 0.055000
0.884371 0.612017 0.055000
0.941732 0.619981 0.055000
1.000000 0.622411 0.055000
0.000000 0.328531 0.055000
0.063708 0.331005 0.055000
0.126213 0.338992 0.055000
0.187191 0.352077 0.055000
0.246681 0.369897 0.055000
0.303242 0.390857 0.055000
0.357640 0.415091 0.055000
0.406053 0.442118 0.055000
0.453048 0.470938 0.055000
0.500000 0.500000 0.055000
0.546952 0.529062 0.055000
0.593947 0.557882 0.055000
0.642360 0.584909 0.055000
0.696758 0.609143 0.055000
0.753319 0.630103 0.055000
0.812809 0.647923 0.055000
0.873787 0.661008 0.055000
0.936292 0.668995 0.055000
1.000000 0.671469 0.055000
0.000000 0.377589 0.055000
0.058268 0.380019 0.055000
0.115629 0.387983 0.055000
0.171935 0.400575 0.055000
0.226732 0.418038 0.055000
0.280113 0.438928 0.055000
0.332209 0.463012 0.055000
0.378420 0.490008 0.055000
0.424301 0.518006 0.055000
0.470938 0.546952 0.055000
0.518006 0.575699 0.055000
0.566313 0.603535 0.055000
0.615672 0.630557 0.055000
0.673199 0.654727 0.055000
0.733927 0.675694 0.055000
0.797059 0.693181 0.055000
0.862879 0.706308 0.055000
0.930684 0.714193 0.055000
1.000000 0.716912 0.055000
0.000000 0.432831 0.055000
0.052531 0.435227 0.055000
0.104796 0.442594 0.055000
0.156263 0.454716 0.055000
0.207119 0.471223 0.055000
0.256577 0.490650 0.055000
0.305438 0.513244 0.055000
0.350688 0.538967 0.055000
0.396465 0.566313 0.055000
0.442118 0.593947 0.055000
0.490008 0.621580 0.055000
0.538967 0.649312 0.055000
0.590460 0.675645 0.055000
0.651115 0.698800 0.055000
0.714823 0.719450 0.055000
0.782024 0.736244 0.055000
0.852488 0.748680 0.055000
0.925171 0.756213 0.055000
1.000000 0.758693 0.055000
0.000000 0.494100 0.055000
0.047217 0.496014 0.055000
0.094536 0.502772 0.055000
0.141509 0.513569 0.055000
0.188418 0.528696 0.055000
0.234266 0.546558 0.055000
0.280609 0.566967 0.055000
0.324355 0.590460 0.055000
0.369443 0.615672 0.055000
0.415091 0.642360 0.055000
0.463012 0.667791 0.055000
0.513244 0.694562 0.055000
0.566967 0.719391 0.055000
0.629254 0.741322 0.055000
0.695312 0.761149 0.055000
0.766793 0.776739 0.055000
0.841930 0.788437 0.055000
0.919906 0.795179 0.055000
1.000000 0.797627 0.055000
0.000000 0.562462 0.055000
0.042742 0.564410 0.055000
0.085886 0.570670 0.055000
0.128799 0.580627 0.055000
0.171906 0.594018 0.055000
0.215064 0.610219 0.055000
0.258678 0.629254 0.055000
0.301200 0.651115 0.055000
0.345273 0.673199 0.055000
0.390857 0.696758 0.055000
0.438928 0.719887 0.055000
0.490650 0.743423 0.055000
0.546558 0.765734 0.055000
0.610219 0.784936 0.055000
0.678929 0.802286 0.055000
0.753837 0.816103 0.055000
0.832926 0.826770 0.055000
0.915223 0.832816 0.055000
1.000000 0.835278 0.055000
0.000000 0.637670 0.055000
0.038669 0.639327 0.055000
0.077961 0.645088 0.055000
0.117416 0.653671 0.055000
0.157371 0.665013 0.055000
0.197714 0.678929 0.055000
0.238851 0.695312 0.055000
0.280550 0.714823 0.055000
0.324306 0.733927 0.055000
0.369897 0.753319 0.055000
0.418038 0.773268 0.055000
0.471223 0.792881 0.055000
0.528696 0.811582 0.055000
0.594018 0.828094 0.055000
0.665013 0.842629 0.055000
0.742698 0.854188 0.055000
0.825293 0.863208 0.055000
0.911192 0.868185 0.055000
1.000000 0.870395 0.055000
0.000000 0.720993 0.055000
0.035698 0.722296 0.055000
0.071988 0.726812 0.055000
0.108486 0.733448 0.055000
0.145812 0.742698 0.055000
0.183897 0.753837 0.055000
0.223261 0.766793 0.055000
0.263756 0.782024 0.055000
0.306819 0.797059 0.055000
0.352077 0.812809 0.055000
0.400575 0.828065 0.055000
0.454716 0.843737 0.055000
0.513569 0.858491 0.055000
0.580627 0.871201 0.055000
0.653671 0.882584 0.055000
0.733448 0.891514 0.055000
0.818890 0.898701 0.055000
0.907913 0.902618 0.055000
1.000000 0.904394 0.055000
0.000000 0.810335 0.055000
0.033430 0.811227 0.055000
0.067343 0.814340 0.055000
0.101299 0.818890 0.055000
0.136792 0.825293 0.055000
0.173230 0.832926 0.055000
0.211563 0.841930 0.055000
0.251320 0.852488 0.055000
0.293692 0.862879 0.055000
0.338992 0.873787 0.055000
0.387983 0.884371 0.055000
0.442594 0.895204 0.055000
0.502772 0.905464 0.055000
0.570670 0.914114 0.055000
0.645088 0.922039 0.055000
0.726812 0.928012 0.055000
0.814340 0.932657 0.055000
0.905539 0.935312 0.055000
1.000000 0.936454 0.055000
0.000000 0.903489 0.055000
0.032184 0.903977 0.055000
0.064688 0.905539 0.055000
0.097382 0.907913 0.055000
0.131815 0.911192 0.055000
0.167184 0.915223 0.055000
0.204821 0.919906 0.055000
0.243787 0.925171 0.055000
0.285807 0.930684 0.055000
0.331005 0.936292 0.055000
0.380019 0.941732 0.055000
0.435227 0.947469 0.055000
0.496014 0.952782 0.055000
0.564410 0.957258 0.055000
0.639327 0.961331 0.055000
0.722296 0.964301 0.055000
0.811227 0.966570 0.055000
0.903977 0.967816 0.055000
1.000000 0.968351 0.055000
0.000000 1.000000 0.055000
0.031648 1.000000 0.055000
0.063546 1.000000 0.055000
0.095606 1.000000 0.055000
0.129605 1.000000 0.055000
0.164722 1.000000 0.055000
0.202373 1.000000 0.055000
0.241307 1.000000 0.055000
0.283088 1.000000 0.055000
0.328531 1.000000 0.055000
0.377589 1.000000 0.055000
0.432831 1.000000 0.055000
0.494100 1.000000 0.055000
0.562462 1.000000 0.055000
0.637670 1.000000 0.055000
0.720993 1.000000 0.055000
0.810335 1.000000 0.055000
0.903489 1.000000 0.055000
1.000000 1.000000 0.055000
0.000000 0.000000 0.110000
0.096511 0.000000 0.110000
0.189665 0.000000 0.110000
0.279007 0.000000 0.110000
0.362330 0.000000 0.110000
0.437538 0.000000 0.110000
0.505900 0.000000 0.110000
0.567169 0.000000 0.110000
0.622411 0.000000 0.110000
0.671469 0.000000 0.110000
0.716912 0.000000 0.110000
0.758693 0.000000 0.110000
0.797627 0.000000 0.110000
0.835278 0.000000 0.110000
0.870395 0.000000 0.110000
0.904394 0.000000 0.110000
0.936454 0.000000 0.110000