# vtk DataFile Version 2.0
Mesh for Fierro
ASCII 
DATASET UNSTRUCTURED_GRID

POINTS 2527 float
0.000000 0.000000 0.000000
0.520109 0.000000 0.000000
0.881920 0.000000 0.000000
0.914008 0.000000 0.000000
0.930366 0.000000 0.000000
0.942096 0.000000 0.000000
0.951587 0.000000 0.000000
0.959426 0.000000 0.000000
0.966186 0.000000 0.000000
0.971877 0.000000 0.000000
0.976409 0.000000 0.000000
0.980142 0.000000 0.000000
0.983162 0.000000 0.000000
0.985890 0.000000 0.000000
0.987998 0.000000 0.000000
0.990528 0.000000 0.000000
0.993606 0.000000 0.000000
0.997670 0.000000 0.000000
1.000000 0.000000 0.000000
0.000000 0.002318 0.000000
0.553958 0.006830 0.000000
0.874820 0.036364 0.000000
0.876626 0.121390 0.000000
0.907000 0.139178 0.000000
0.918376 0.222580 0.000000
0.927260 0.280311 0.000000
0.932975 0.337192 0.000000
0.937032 0.398446 0.000000
0.940670 0.455729 0.000000
0.944912 0.504699 0.000000
0.949453 0.550567 0.000000
0.954716 0.588487 0.000000
0.961567 0.612636 0.000000
0.968675 0.628366 0.000000
0.976858 0.620870 0.000000
0.985256 0.598618 0.000000
0.993120 0.554300 0.000000
1.000000 0.518627 0.000000
0.000000 0.006305 0.000000
0.598246 0.014730 0.000000
0.859840 0.065738 0.000000
0.835894 0.174206 0.000000
0.890333 0.222454 0.000000
0.900635 0.369100 0.000000
0.899961 0.479611 0.000000
0.901769 0.550555 0.000000
0.899203 0.619292 0.000000
0.892222 0.666921 0.000000
0.883227 0.698393 0.000000
0.878531 0.719236 0.000000
0.883228 0.738196 0.000000
0.895071 0.761401 0.000000
0.910396 0.790796 0.000000
0.922553 0.828038 0.000000
0.934053 0.859719 0.000000
0.963263 0.875217 0.000000
1.000000 0.882354 0.000000
0.000000 0.009373 0.000000
0.621480 0.023191 0.000000
0.827991 0.077421 0.000000
0.826884 0.206595 0.000000
0.880657 0.316070 0.000000
0.870915 0.450831 0.000000
0.848970 0.545727 0.000000
0.843667 0.599203 0.000000
0.817230 0.652158 0.000000
0.785287 0.695253 0.000000
0.753947 0.736701 0.000000
0.734829 0.775073 0.000000
0.728878 0.803369 0.000000
0.728936 0.823075 0.000000
0.755069 0.828103 0.000000
0.793894 0.826785 0.000000
0.826382 0.836303 0.000000
0.879096 0.877232 0.000000
1.000000 0.915487 0.000000
0.000000 0.011896 0.000000
0.628622 0.031364 0.000000
0.790651 0.089655 0.000000
0.828276 0.245106 0.000000
0.852313 0.376851 0.000000
0.838054 0.481936 0.000000
0.791862 0.582321 0.000000
0.770718 0.640062 0.000000
0.720010 0.696115 0.000000
0.676793 0.730718 0.000000
0.647201 0.752594 0.000000
0.624418 0.767061 0.000000
0.612101 0.785074 0.000000
0.606704 0.812544 0.000000
0.623235 0.852434 0.000000
0.684325 0.880495 0.000000
0.777624 0.889978 0.000000
0.860715 0.908893 0.000000
1.000000 0.936433 0.000000
0.000000 0.014046 0.000000
0.612288 0.038425 0.000000
0.761280 0.104985 0.000000
0.822999 0.270696 0.000000
0.812808 0.393035 0.000000
0.809168 0.495797 0.000000
0.744502 0.580163 0.000000
0.715905 0.638356 0.000000
0.667313 0.670690 0.000000
0.612315 0.688575 0.000000
0.563694 0.710587 0.000000
0.519868 0.739868 0.000000
0.502690 0.775618 0.000000
0.504157 0.809261 0.000000
0.518130 0.838062 0.000000
0.548982 0.870980 0.000000
0.630591 0.900190 0.000000
0.776157 0.918072 0.000000
1.000000 0.943355 0.000000
0.000000 0.016726 0.000000
0.588249 0.045297 0.000000
0.738113 0.116880 0.000000
0.803411 0.271126 0.000000
0.785072 0.388029 0.000000
0.775734 0.497321 0.000000
0.708479 0.564255 0.000000
0.660002 0.619970 0.000000
0.589067 0.637626 0.000000
0.536010 0.659212 0.000000
0.492448 0.674070 0.000000
0.463835 0.693227 0.000000
0.435643 0.708492 0.000000
0.419768 0.744584 0.000000
0.417686 0.792049 0.000000
0.454278 0.849124 0.000000
0.520485 0.900115 0.000000
0.720459 0.926646 0.000000
1.000000 0.950043 0.000000
0.000000 0.019691 0.000000
0.550207 0.050554 0.000000
0.719162 0.121535 0.000000
0.775141 0.265131 0.000000
0.766997 0.375624 0.000000
0.739929 0.480039 0.000000
0.693151 0.536096 0.000000
0.636288 0.582964 0.000000
0.577379 0.595017 0.000000
0.517612 0.607977 0.000000
0.464328 0.618604 0.000000
0.417110 0.636306 0.000000
0.380047 0.659990 0.000000
0.361627 0.715897 0.000000
0.359909 0.770720 0.000000
0.400891 0.843880 0.000000
0.449213 0.901953 0.000000
0.662844 0.932702 0.000000
1.000000 0.958272 0.000000
0.000000 0.023347 0.000000
0.504393 0.055068 0.000000
0.698339 0.116813 0.000000
0.736761 0.245978 0.000000
0.752575 0.352832 0.000000
0.710580 0.436255 0.000000
0.674138 0.507498 0.000000
0.618660 0.535652 0.000000
0.564550 0.545302 0.000000
0.507008 0.556021 0.000000
0.454665 0.564533 0.000000
0.404933 0.577397 0.000000
0.362375 0.589102 0.000000
0.329305 0.667315 0.000000
0.303808 0.720001 0.000000
0.347903 0.817236 0.000000
0.380092 0.899235 0.000000
0.600975 0.936861 0.000000
1.000000 0.965342 0.000000
0.000000 0.027862 0.000000
0.455738 0.059277 0.000000
0.666928 0.107858 0.000000
0.695378 0.214770 0.000000
0.730702 0.323192 0.000000
0.688581 0.387718 0.000000
0.659153 0.464003 0.000000
0.607900 0.482412 0.000000
0.555963 0.492998 0.000000
0.499963 0.499967 0.000000
0.443947 0.506998 0.000000
0.392039 0.517593 0.000000
0.340832 0.536044 0.000000
0.311468 0.612251 0.000000
0.269298 0.676808 0.000000
0.304590 0.785092 0.000000
0.332836 0.892144 0.000000
0.543788 0.940553 0.000000
1.000000 0.971265 0.000000
0.000000 0.033596 0.000000
0.398966 0.062878 0.000000
0.619617 0.100917 0.000000
0.652205 0.182855 0.000000
0.696143 0.280000 0.000000
0.670701 0.332591 0.000000
0.637703 0.410995 0.000000
0.595031 0.422637 0.000000
0.545322 0.435412 0.000000
0.492989 0.444054 0.000000
0.435472 0.454633 0.000000
0.381406 0.464335 0.000000
0.325881 0.492521 0.000000
0.289390 0.563773 0.000000
0.247424 0.647192 0.000000
0.263332 0.754197 0.000000
0.301500 0.883320 0.000000
0.495226 0.944868 0.000000
1.000000 0.975905 0.000000
0.000000 0.040345 0.000000
0.337292 0.066834 0.000000
0.550786 0.098161 0.000000
0.599241 0.156258 0.000000
0.640041 0.229299 0.000000
0.638265 0.284156 0.000000
0.619981 0.340033 0.000000
0.582980 0.363706 0.000000
0.535668 0.381445 0.000000
0.482377 0.392047 0.000000
0.422646 0.404937 0.000000
0.363669 0.417146 0.000000
0.306750 0.463929 0.000000
0.260124 0.519904 0.000000
0.232906 0.624618 0.000000
0.224944 0.734994 0.000000
0.280689 0.878668 0.000000
0.449892 0.949512 0.000000
1.000000 0.979723 0.000000
0.000000 0.048250 0.000000
0.280435 0.072448 0.000000
0.479635 0.099870 0.000000
0.545719 0.150714 0.000000
0.582311 0.207881 0.000000
0.580287 0.255444 0.000000
0.564204 0.291456 0.000000
0.536052 0.306905 0.000000
0.507517 0.325982 0.000000
0.463906 0.340795 0.000000
0.410960 0.362306 0.000000
0.340070 0.380071 0.000000
0.291435 0.435724 0.000000
0.224402 0.502421 0.000000
0.214980 0.612113 0.000000
0.196632 0.728870 0.000000
0.261780 0.883433 0.000000
0.411667 0.954786 0.000000
1.000000 0.982839 0.000000
0.000000 0.058078 0.000000
0.222818 0.081527 0.000000
0.369271 0.099255 0.000000
0.451242 0.129086 0.000000
0.481946 0.162067 0.000000
0.495702 0.190785 0.000000
0.497526 0.224358 0.000000
0.480104 0.260059 0.000000
0.436266 0.289360 0.000000
0.387738 0.311415 0.000000
0.332706 0.329307 0.000000
0.284137 0.361686 0.000000
0.255364 0.419672 0.000000
0.190849 0.504082 0.000000
0.187366 0.606960 0.000000
0.176954 0.729153 0.000000
0.238591 0.895379 0.000000
0.387454 0.961625 0.000000
1.000000 0.985624 0.000000
0.000000 0.070467 0.000000
0.139247 0.093155 0.000000
0.222745 0.109765 0.000000
0.315912 0.119383 0.000000
0.376911 0.147636 0.000000
0.393064 0.187274 0.000000
0.387889 0.214950 0.000000
0.375442 0.232910 0.000000
0.352883 0.247458 0.000000
0.323199 0.269262 0.000000
0.280062 0.303811 0.000000
0.229296 0.359914 0.000000
0.207809 0.417696 0.000000
0.162062 0.518077 0.000000
0.147696 0.623069 0.000000
0.171738 0.754876 0.000000
0.209247 0.910510 0.000000
0.371368 0.968664 0.000000
1.000000 0.987815 0.000000
0.000000 0.086156 0.000000
0.121271 0.123510 0.000000
0.174120 0.164136 0.000000
0.206089 0.173504 0.000000
0.245070 0.171750 0.000000
0.270871 0.177058 0.000000
0.271109 0.196709 0.000000
0.264990 0.224916 0.000000
0.245920 0.263253 0.000000
0.215023 0.304578 0.000000
0.182775 0.347947 0.000000
0.156123 0.400842 0.000000
0.150690 0.454393 0.000000
0.129044 0.548848 0.000000
0.119568 0.683966 0.000000
0.173366 0.793787 0.000000
0.171966 0.922916 0.000000
0.379193 0.976808 0.000000
1.000000 0.990442 0.000000
0.000000 0.118252 0.000000
0.036366 0.125270 0.000000
0.065496 0.140135 0.000000
0.077219 0.171955 0.000000
0.089526 0.209222 0.000000
0.104744 0.238535 0.000000
0.116579 0.261694 0.000000
0.121366 0.280722 0.000000
0.116770 0.301598 0.000000
0.107943 0.332839 0.000000
0.100713 0.380146 0.000000
0.097983 0.449277 0.000000
0.099695 0.520255 0.000000
0.099244 0.630700 0.000000
0.110013 0.777339 0.000000
0.163873 0.825908 0.000000
0.140281 0.934438 0.000000
0.400859 0.985193 0.000000
1.000000 0.993572 0.000000
0.000000 0.479834 0.000000
0.006920 0.444927 0.000000
0.014872 0.400709 0.000000
0.023278 0.379254 0.000000
0.031378 0.371253 0.000000
0.038417 0.387209 0.000000
0.045206 0.411714 0.000000
0.050470 0.449501 0.000000
0.055020 0.494827 0.000000
0.059214 0.543529 0.000000
0.062805 0.600903 0.000000
0.066816 0.662623 0.000000
0.072446 0.720245 0.000000
0.081582 0.776964 0.000000
0.092887 0.860755 0.000000
0.123258 0.878785 0.000000
0.125041 0.963543 0.000000
0.444879 0.993111 0.000000
1.000000 0.997603 0.000000
0.000000 1.000000 0.000000
0.002335 1.000000 0.000000
0.006312 1.000000 0.000000
0.009395 1.000000 0.000000
0.011959 1.000000 0.000000
0.014070 1.000000 0.000000
0.016761 1.000000 0.000000
0.019786 1.000000 0.000000
0.023472 1.000000 0.000000
0.027988 1.000000 0.000000
0.033738 1.000000 0.000000
0.040560 1.000000 0.000000
0.048500 1.000000 0.000000
0.057605 1.000000 0.000000
0.068968 1.000000 0.000000
0.085940 1.000000 0.000000
0.118367 1.000000 0.000000
0.480423 1.000000 0.000000
1.000000 1.000000 0.000000
0.000000 0.000000 0.054999
0.520360 0.000000 0.055275
0.878991 0.000000 0.055199
0.911854 0.000000 0.055487
0.929924 0.000000 0.054930
[...]
POINT_DATA 2527 
VECTORS pos float 
0.000000 0.000000 0.000000
0.520109 0.000000 0.000000
0.881920 0.000000 0.000000
0.914008 0.000000 0.000000
0.930366 0.000000 0.000000
0.942096 0.000000 0.000000
0.951587 0.000000 0.000000
0.959426 0.000000 0.000000
0.966186 0.000000 0.000000
0.971877 0.000000 0.000000
0.976409 0.000000 0.000000
0.980142 0.000000 0.000000
0.983162 0.000000 0.000000
0.985890 0.000000 0.000000
0.987998 0.000000 0.000000
0.990528 0.000000 0.000000
0.993606 0.000000 0.000000
0.997670 0.000000 0.000000
1.000000 0.000000 0.000000
0.000000 0.002318 0.000000
0.553958 0.006830 0.000000
0.874820 0.036364 0.000000
0.876626 0.121390 0.000000
0.907000 0.139178 0.000000
0.918376 0.222580 0.000000
0.927260 0.280311 0.000000
0.932975 0.337192 0.000000
0.937032 0.398446 0.000000
0.940670 0.455729 0.000000
0.944912 0.504699 0.000000
0.949453 0.550567 0.000000
0.954716 0.588487 0.000000
0.961567 0.612636 0.000000
0.968675 0.628366 0.000000
0.976858 0.620870 0.000000
0.985256 0.598618 0.000000
0.993120 0.554300 0.000000
1.000000 0.518627 0.000000
0.000000 0.006305 0.000000
0.598246 0.014730 0.000000
0.859840 0.065738 0.000000
0.835894 0.174206 0.000000
0.890333 0.222454 0.000000
0.900635 0.369100 0.000000
0.899961 0.479611 0.000000
0.901769 0.550555 0.000000
0.899203 0.619292 0.000000
0.892222 0.666921 0.000000
0.883227 0.698393 0.000000
0.878531 0.719236 0.000000
0.883228 0.738196 0.000000
0.895071 0.761401 0.000000
0.910396 0.790796 0.000000
0.922553 0.828038 0.000000
0.934053 0.859719 0.000000
0.963263 0.875217 0.000000
1.000000 0.882354 0.000000
0.000000 0.009373 0.000000
0.621480 0.023191 0.000000
0.827991 0.077421 0.000000
0.826884 0.206595 0.000000
0.880657 0.316070 0.000000
0.870915 0.450831 0.000000
0.848970 0.545727 0.000000
0.843667 0.599203 0.000000
0.817230 0.652158 0.000000
0.785287 0.695253 0.000000
0.753947 0.736701 0.000000
0.734829 0.775073 0.000000
0.728878 0.803369 0.000000
0.728936 0.823075 0.000000
0.755069 0.828103 0.000000
0.793894 0.826785 0.000000
0.826382 0.836303 0.000000
0.879096 0.877232 0.000000
1.000000 0.915487 0.000000
0.000000 0.011896 0.000000
0.628622 0.031364 0.000000
0.790651 0.089655 0.000000
0.828276 0.245106 0.000000
0.852313 0.376851 0.000000
0.838054 0.481936 0.000000
0.791862 0.582321 0.000000
0.770718 0.640062 0.000000
0.720010 0.696115 0.000000
0.676793 0.730718 0.000000
0.647201 0.752594 0.000000
0.624418 0.767061 0.000000
0.612101 0.785074 0.000000
0.606704 0.812544 0.000000
0.623235 0.852434 0.000000
0.684325 0.880495 0.000000
0.777624 0.889978 0.000000
0.860715 0.908893 0.000000
1.000000 0.936433 0.000000
0.000000 0.014046 0.000000
0.612288 0.038425 0.000000
0.761280 0.104985 0.000000
0.822999 0.270696 0.000000
0.812808 0.393035 0.000000
0.809168 0.495797 0.000000
0.744502 0.580163 0.000000
0.715905 0.638356 0.000000
0.667313 0.670690 0.000000
0.612315 0.688575 0.000000
0.563694 0.710587 0.000000
0.519868 0.739868 0.000000
0.502690 0.775618 0.000000
0.504157 0.809261 0.000000
0.518130 0.838062 0.000000
0.548982 0.870980 0.000000
0.630591 0.900190 0.000000
0.776157 0.918072 0.000000
1.000000 0.943355 0.000000
0.000000 0.016726 0.000000
0.588249 0.045297 0.000000
0.738113 0.116880 0.000000
0.803411 0.271126 0.000000
0.785072 0.388029 0.000000
0.775734 0.497321 0.000000
0.708479 0.564255 0.000000
0.660002 0.619970 0.000000
0.589067 0.637626 0.000000
0.536010 0.659212 0.000000
0.492448 0.674070 0.000000
0.463835 0.693227 0.000000
0.435643 0.708492 0.000000
0.419768 0.744584 0.000000
0.417686 0.792049 0.000000
0.454278 0.849124 0.000000
0.520485 0.900115 0.000000
0.720459 0.926646 0.000000
1.000000 0.950043 0.000000
0.000000 0.019691 0.000000
0.550207 0.050554 0.000000
0.719162 0.121535 0.000000
0.775141 0.265131 0.000000
0.766997 0.375624 0.000000
0.739929 0.480039 0.000000
0.693151 0.536096 0.000000
0.636288 0.582964 0.000000
0.577379 0.595017 0.000000
0.517612 0.607977 0.000000
0.464328 0.618604 0.000000
0.417110 0.636306 0.000000
0.380047 0.659990 0.000000
0.361627 0.715897 0.000000
0.359909 0.770720 0.000000
0.400891 0.843880 0.000000
0.449213 0.901953 0.000000
0.662844 0.932702 0.000000
1.000000 0.958272 0.000000
0.000000 0.023347 0.000000
0.504393 0.055068 0.000000
0.698339 0.116813 0.000000
0.736761 0.245978 0.000000
0.752575 0.352832 0.000000
0.710580 0.436255 0.000000
0.674138 0.507498 0.000000
0.618660 0.535652 0.000000
0.564550 0.545302 0.000000
0.507008 0.556021 0.000000
0.454665 0.564533 0.000000
0.404933 0.577397 0.000000
0.362375 0.589102 0.000000
0.329305 0.667315 0.000000
0.303808 0.720001 0.000000
0.347903 0.817236 0.000000
0.380092 0.899235 0.000000
0.600975 0.936861 0.000000
1.000000 0.965342 0.000000
0.000000 0.027862 0.000000
0.455738 0.059277 0.000000
0.666928 0.107858 0.000000
0.695378 0.214770 0.000000
0.730702 0.323192 0.000000
0.688581 0.387718 0.000000
0.659153 0.464003 0.000000
0.607900 0.482412 0.000000
0.555963 0.492998 0.000000
0.499963 0.499967 0.000000
0.443947 0.506998 0.000000
0.392039 0.517593 0.000000
0.340832 0.536044 0.000000
0.311468 0.612251 0.000000
0.269298 0.676808 0.000000
0.304590 0.785092 0.000000
0.332836 0.892144 0.000000
0.543788 0.940553 0.000000
1.000000 0.971265 0.000000
0.000000 0.033596 0.000000
0.398966 0.062878 0.000000
0.619617 0.100917 0.000000
0.652205 0.182855 0.000000
0.696143 0.280000 0.000000
0.670701 0.332591 0.000000
0.637703 0.410995 0.000000
0.595031 0.422637 0.000000
0.545322 0.435412 0.000000
0.492989 0.444054 0.000000
0.435472 0.454633 0.000000
0.381406 0.464335 0.000000
0.325881 0.492521 0.000000
0.289390 0.563773 0.000000
0.247424 0.647192 0.000000
0.263332 0.754197 0.000000
0.301500 0.883320 0.000000
0.495226 0.944868 0.000000
1.000000 0.975905 0.000000
0.000000 0.040345 0.000000
0.337292 0.066834 0.000000
0.550786 0.098161 0.000000
0.599241 0.156258 0.000000
0.640041 0.229299 0.000000
0.638265 0.284156 0.000000
0.619981 0.340033 0.000000
0.582980 0.363706 0.000000
0.535668 0.381445 0.000000
0.482377 0.392047 0.000000
0.422646 0.404937 0.000000
0.363669 0.417146 0.000000
0.306750 0.463929 0.000000
0.260124 0.519904 0.000000
0.232906 0.624618 0.000000
0.224944 0.734994 0.000000
0.280689 0.878668 0.000000
0.449892 0.949512 0.000000
1.000000 0.979723 0.000000
0.000000 0.048250 0.000000
0.280435 0.072448 0.000000
0.479635 0.099870 0.000000
0.545719 0.150714 0.000000
0.582311 0.207881 0.000000
0.580287 0.255444 0.000000
0.564204 0.291456 0.000000
0.536052 0.306905 0.000000
0.507517 0.325982 0.000000
0.463906 0.340795 0.000000
0.410960 0.362306 0.000000
0.340070 0.380071 0.000000
0.291435 0.435724 0.000000
0.224402 0.502421 0.000000
0.214980 0.612113 0.000000
0.196632 0.728870 0.000000
0.261780 0.883433 0.000000
0.411667 0.954786 0.000000
1.000000 0.982839 0.000000
0.000000 0.058078 0.000000
0.222818 0.081527 0.000000
0.369271 0.099255 0.000000
0.451242 0.129086 0.000000
0.481946 0.162067 0.000000
0.495702 0.190785 0.000000
0.497526 0.224358 0.000000
0.480104 0.260059 0.000000
0.436266 0.289360 0.000000
0.387738 0.311415 0.000000
0.332706 0.329307 0.000000
0.284137 0.361686 0.000000
0.255364 0.419672 0.000000
0.190849 0.504082 0.000000
0.187366 0.606960 0.000000
0.176954 0.729153 0.000000
0.238591 0.895379 0.000000
0.387454 0.961625 0.000000
1.000000 0.985624 0.000000
0.000000 0.070467 0.000000
0.139247 0.093155 0.000000
0.222745 0.109765 0.000000
0.315912 0.119383 0.000000
0.376911 0.147636 0.000000
0.393064 0.187274 0.000000
0.387889 0.214950 0.000000
0.375442 0.232910 0.000000
0.352883 0.247458 0.000000
0.323199 0.269262 0.000000
0.280062 0.303811 0.000000
0.229296 0.359914 0.000000
0.207809 0.417696 0.000000
0.162062 0.518077 0.000000
0.147696 0.623069 0.000000
0.171738 0.754876 0.000000
0.209247 0.910510 0.000000
0.371368 0.968664 0.000000
1.000000 0.987815 0.000000
0.000000 0.086156 0.000000
0.121271 0.123510 0.000000
0.174120 0.164136 0.000000
0.206089 0.173504 0.000000
0.245070 0.171750 0.000000
0.270871 0.177058 0.000000
0.271109 0.196709 0.000000
0.264990 0.224916 0.000000
0.245920 0.263253 0.000000
0.215023 0.304578 0.000000
0.182775 0.347947 0.000000
0.156123 0.400842 0.000000
0.150690 0.454393 0.000000
0.129044 0.548848 0.000000
0.119568 0.683966 0.000000
0.173366 0.793787 0.000000
0.171966 0.922916 0.000000
0.379193 0.976808 0.000000
1.000000 0.990442 0.000000
0.000000 0.118252 0.000000
0.036366 0.125270 0.000000
0.065496 0.140135 0.000000
0.077219 0.171955 0.000000
0.089526 0.209222 0.000000
0.104744 0.238535 0.000000
0.116579 0.261694 0.000000
0.121366 0.280722 0.000000
0.116770 0.301598 0.000000
0.107943 0.332839 0.000000
0.100713 0.380146 0.000000
0.097983 0.449277 0.000000
0.099695 0.520255 0.000000
0.099244 0.630700 0.000000
0.110013 0.777339 0.000000
0.163873 0.825908 0.000000
0.140281 0.934438 0.000000
0.400859 0.985193 0.000000
1.000000 0.993572 0.000000
0.000000 0.479834 0.000000
0.006920 0.444927 0.000000
0.014872 0.400709 0.000000
0.023278 0.379254 0.000000
0.031378 0.371253 0.000000
0.038417 0.387209 0.000000
0.045206 0.411714 0.000000
0.050470 0.449501 0.000000
0.055020 0.494827 0.000000
0.059214 0.543529 0.000000
0.062805 0.600903 0.000000
0.066816 0.662623 0.000000
0.072446 0.720245 0.000000
0.081582 0.776964 0.000000
0.092887 0.860755 0.000000
0.123258 0.878785 0.000000
0.125041 0.963543 0.000000
0.444879 0.993111 0.000000
1.000000 0.997603 0.000000
0.000000 1.000000 0.000000
0.002335 1.000000 0.000000
0.006312 1.000000 0.000000
0.009395 1.000000 0.000000
0.011959 1.000000 0.000000
0.014070 1.000000 0.000000
0.016761 1.000000 0.000000
0.019786 1.000000 0.000000
0.023472 1.000000 0.000000
0.027988 1.000000 0.000000
0.033738 1.000000 0.000000
0.040560 1.000000 0.000000
0.048500 1.000000 0.000000
0.057605 1.000000 0.000000
0.068968 1.000000 0.000000
0.085940 1.000000 0.000000
0.118367 1.000000 0.000000
0.480423 1.000000 0.000000
1.000000 1.000000 0.000000
0.000000 0.000000 0.054999
0.520360 0.000000 0.055275
0.878991 0.000000 0.055199
0.911854 0.000000 0.055487
0.929924 0.000000 0.054930
0.942711 0.000000 0.053549
0.952788 0.000000 0.054742
0.960444 0.000000 0.055136
0.966983 0.000000 0.055288
0.972566 0.000000 0.055372
0.976982 0.000000 0.055197
0.980592 0.000000 0.055047
0.983545 0.000000 0.054941
0.986195 0.000000 0.054875
0.988273 0.000000 0.054932
0.990837 0.000000 0.054915
0.993892 0.000000 0.055007
0.997824 0.000000 0.055178
1.000000 0.000000 0.055971
0.000000 0.002185 0.055210
0.555074 0.006931 0.055164
0.873676 0.036089 0.055106
0.876093 0.121790 0.054908
0.907299 0.138615 0.055269
0.918768 0.222844 0.054500
0.927856 0.280230 0.055129
0.933328 0.337759 0.055212
0.937203 0.399038 0.055058
0.940731 0.456395 0.054971
0.944902 0.505188 0.054998
0.949428 0.550412 0.054953
0.954600 0.588612 0.055003
0.961453 0.613080 0.055006
0.968510 0.628930 0.055054
0.976704 0.620438 0.054971
0.985123 0.598093 0.055118
0.993122 0.555190 0.055146
1.000000 0.521621 0.054747
0.000000 0.006155 0.055064
0.598640 0.014936 0.055042
0.859558 0.065359 0.055090
0.836227 0.174533 0.054958
0.890584 0.222654 0.055044
0.900816 0.369270 0.054923
0.900182 0.479438 0.054961
0.901752 0.550823 0.054939
0.899095 0.619683 0.054868
0.892014 0.666962 0.054945
0.883150 0.698305 0.054956
0.878486 0.719188 0.055014
0.883171 0.738162 0.055118
0.895118 0.761420 0.054956
0.910154 0.790849 0.055192
0.922850 0.828132 0.055046
0.934810 0.859524 0.055280
0.964099 0.873326 0.054726
1.000000 0.878238 0.056492
0.000000 0.009229 0.055000
0.620792 0.023355 0.054997
0.828027 0.077255 0.054961
0.826810 0.206424 0.054984
0.880756 0.315721 0.055034
0.870889 0.451064 0.055066
0.849278 0.545677 0.054977
0.843724 0.599190 0.054972
0.817152 0.652126 0.055013
0.785044 0.695435 0.055063
0.754130 0.736773 0.055028
0.735021 0.775093 0.054999
0.729013 0.803397 0.054944
0.729101 0.823077 0.054961
0.754584 0.828386 0.054848
0.793427 0.826792 0.054884
0.825369 0.836113 0.054933
0.878115 0.875943 0.054703
1.000000 0.911118 0.052635
0.000000 0.011810 0.055021
0.628979 0.031504 0.054951
0.790751 0.089728 0.055021
0.828342 0.245203 0.054949
0.852342 0.376860 0.054962
0.838053 0.481945 0.054988
0.792003 0.582217 0.054992
0.770661 0.640025 0.054987
0.719958 0.696229 0.054999
0.676770 0.730675 0.055029
0.647166 0.752542 0.054990
0.624552 0.767066 0.055035
0.611994 0.785013 0.055152
0.607005 0.812724 0.054951
0.623069 0.852377 0.055046
0.684501 0.880855 0.055136
0.777331 0.890759 0.055164
0.861503 0.906358 0.054560
1.000000 0.926763 0.054730
0.000000 0.013917 0.054969
0.612910 0.038547 0.054933
0.761365 0.104908 0.055104
0.823089 0.270930 0.054989
0.812646 0.393090 0.055020
0.809194 0.495724 0.055029
0.744500 0.580256 0.055005
0.715891 0.638427 0.055003
0.667303 0.670700 0.055026
0.612216 0.688551 0.054974
0.563735 0.710689 0.055007
0.519856 0.739877 0.054995
0.502547 0.775707 0.055029
0.504290 0.809133 0.054910
0.518014 0.838038 0.055024
0.548955 0.870842 0.054920
0.630844 0.901053 0.055094
0.777421 0.918964 0.055332
1.000000 0.942063 0.058834
0.000000 0.016580 0.054976
0.588507 0.045390 0.054933
0.738166 0.116741 0.055060
0.803373 0.271015 0.054959
0.785022 0.387921 0.054957
0.775685 0.497415 0.054969
0.708547 0.564248 0.054969
0.660015 0.619940 0.054999
0.589095 0.637592 0.054978
0.536080 0.659240 0.054989
0.492475 0.674037 0.054996
0.463884 0.693130 0.054997
0.435721 0.708567 0.055044
0.419728 0.744565 0.055004
0.417796 0.792004 0.054976
0.454365 0.849302 0.055031
0.520529 0.900169 0.054957
0.719429 0.928281 0.054881
1.000000 0.953686 0.054894
0.000000 0.019558 0.055018
0.550164 0.050574 0.054952
0.719148 0.121418 0.055043
0.775085 0.265020 0.055009
0.767063 0.375426 0.054990
0.739874 0.480129 0.054990
0.693157 0.536118 0.055024
0.636318 0.582891 0.054994
0.577377 0.595023 0.054992
0.517615 0.607974 0.055014
0.464382 0.618558 0.055016
0.417119 0.636295 0.055008
0.380087 0.659987 0.054993
0.361596 0.715904 0.054991
0.359953 0.770675 0.054978
0.400824 0.843755 0.054959
0.449182 0.901701 0.054982
0.662224 0.933559 0.054961
1.000000 0.961013 0.054650
0.000000 0.023204 0.055080
0.504872 0.055104 0.055014
0.698329 0.116795 0.055009
0.736757 0.245880 0.055033
0.752533 0.352788 0.055052
0.710674 0.436237 0.055044
0.674074 0.507510 0.055005
0.618576 0.535632 0.054972
0.564556 0.545353 0.055005
0.507011 0.555968 0.054992
0.454659 0.564559 0.054995
0.404983 0.577382 0.054992
0.362383 0.589149 0.055010
0.329295 0.667317 0.055011
0.303829 0.719997 0.055009
0.347829 0.817193 0.054982
0.380302 0.899023 0.054961
0.600832 0.937295 0.055086
1.000000 0.967380 0.054692
0.000000 0.027660 0.055192
0.456266 0.059307 0.054997
0.666959 0.107924 0.055032
0.695433 0.214880 0.055011
0.730661 0.323229 0.055004
0.688549 0.387816 0.054993
0.659199 0.463944 0.055021
0.607957 0.482412 0.055003
0.555982 0.492990 0.055011
0.499998 0.500019 0.055027
0.444015 0.507003 0.055007
0.392031 0.517592 0.055008
0.340824 0.536086 0.055007
0.311407 0.612258 0.054981
0.269329 0.676798 0.055024
0.304581 0.785129 0.054989
0.333055 0.891990 0.055068
0.543839 0.940794 0.055036
1.000000 0.972897 0.054923
0.000000 0.033292 0.055119
0.399293 0.062896 0.055039
0.619746 0.100943 0.055021
0.652174 0.182864 0.054991
0.696211 0.280022 0.055016
0.670736 0.332662 0.054962
0.637595 0.410910 0.055000
0.595039 0.422617 0.054990
0.545323 0.435447 0.054982
0.492990 0.444041 0.055024
0.435450 0.454659 0.054988
0.381396 0.464332 0.054995
0.325966 0.492506 0.055010
0.289358 0.563695 0.054987
0.247445 0.647190 0.054982
0.263255 0.754171 0.055007
0.301691 0.883076 0.055004
0.495100 0.944925 0.055013
1.000000 0.977255 0.054940
0.000000 0.039850 0.054979
0.337711 0.066806 0.055199
0.550802 0.098277 0.055049
0.599201 0.156261 0.055004
0.640022 0.229337 0.054970
0.638418 0.284099 0.055015
0.619943 0.339977 0.054994
0.582943 0.363705 0.055016
0.535644 0.381407 0.054969
0.482405 0.392025 0.054997
0.422629 0.404974 0.054985
0.363683 0.417068 0.054989
0.306870 0.463892 0.055004
0.260094 0.519841 0.055011
0.232979 0.624526 0.055015
0.224892 0.734997 0.054993
0.280831 0.878406 0.055048
0.449703 0.949398 0.054983
1.000000 0.980838 0.054992
0.000000 0.047476 0.054787
0.279912 0.072361 0.055203
0.479265 0.099898 0.055113
0.545664 0.150706 0.054961
0.582276 0.208014 0.054978
0.580200 0.255511 0.055006
0.564189 0.291484 0.054965
0.536095 0.306917 0.055042
0.507489 0.325963 0.055012
0.463884 0.340832 0.055033
0.410857 0.362412 0.055011
0.339950 0.380061 0.054954
0.291457 0.435756 0.055080
0.224310 0.502626 0.054957
0.214961 0.612120 0.055038
0.196578 0.728994 0.055005
0.261774 0.883016 0.055016
0.411618 0.954551 0.055014
1.000000 0.983757 0.054991
0.000000 0.057156 0.053196
0.223435 0.081379 0.054486
0.369326 0.099378 0.054744
0.451083 0.129201 0.054954
0.481930 0.161958 0.054971
0.495771 0.190799 0.054985
0.497358 0.224288 0.054942
0.480155 0.260087 0.054980
0.436337 0.289349 0.054974
0.387784 0.311401 0.055003
0.332714 0.329257 0.054964
0.284092 0.361596 0.054997
0.255481 0.419796 0.055014
0.190847 0.504230 0.054946
0.187375 0.606872 0.055000
0.176871 0.729064 0.055013
0.238552 0.894931 0.054998
0.387263 0.961415 0.055007
1.000000 0.986372 0.054986
0.000000 0.069187 0.055443
0.138808 0.092447 0.055282
0.222506 0.109490 0.055078
0.315546 0.119300 0.054875
0.376793 0.147655 0.054969
0.393109 0.187407 0.055039
0.387891 0.214958 0.055018
0.375468 0.232971 0.055022
0.352785 0.247443 0.055056
0.323241 0.269324 0.055038
0.280034 0.303807 0.054983
0.229354 0.359942 0.055005
0.207910 0.417684 0.054960
0.162026 0.518089 0.054994
0.147622 0.623187 0.054969
0.171586 0.754692 0.055085
0.209218 0.910097 0.055045
0.371248 0.968469 0.055063
1.000000 0.988427 0.054886
0.000000 0.087566 0.056824
0.121626 0.123574 0.054971
0.174372 0.163751 0.054895
0.206316 0.173224 0.055104
0.245175 0.171673 0.055029
0.270889 0.176877 0.055047
0.270972 0.196564 0.054994
0.264990 0.224902 0.055011
0.245873 0.263270 0.055010
0.214857 0.304609 0.054986
0.182842 0.347831 0.055005
0.156243 0.400807 0.055011
0.150699 0.454387 0.054975
0.129195 0.548944 0.054879
0.119140 0.684335 0.054948
0.173301 0.793684 0.055072
0.171777 0.922705 0.055081
0.379577 0.976659 0.054948
1.000000 0.990923 0.054956
0.000000 0.120254 0.054251
0.036180 0.125911 0.054944
0.065521 0.140262 0.055057
0.077323 0.171740 0.055083
0.089861 0.209180 0.055068
0.105044 0.238570 0.055039
0.116879 0.261783 0.054988
0.121557 0.280797 0.055027
0.116876 0.301651 0.054988
0.107989 0.332994 0.055036
0.100963 0.380291 0.054930
0.098303 0.449170 0.054990
0.099929 0.520650 0.055055
0.099228 0.630682 0.054643
0.109431 0.777177 0.055092
0.163913 0.825663 0.054846
0.140195 0.934589 0.055091
0.401506 0.985100 0.054974
1.000000 0.993916 0.054989
0.000000 0.479862 0.055311
0.006917 0.445141 0.055027
0.014912 0.401786 0.054974
0.023294 0.379320 0.055014
0.031510 0.371207 0.055039
0.038565 0.387187 0.055039
0.045412 0.411652 0.055023
0.050621 0.449623 0.054983
0.055133 0.495144 0.055002
0.059326 0.543705 0.055142
0.062879 0.600756 0.055163
0.066767 0.662262 0.055192
0.072271 0.720026 0.055211
0.081299 0.777159 0.054544
0.092641 0.861094 0.055121
0.123700 0.878278 0.054970
0.125881 0.963891 0.054721
0.444973 0.993088 0.055071
1.000000 0.997833 0.054878
0.000000 1.000000 0.054429
0.002193 1.000000 0.054948
0.006161 1.000000 0.055070
0.009227 1.000000 0.055093
0.011764 1.000000 0.055106
0.013855 1.000000 0.055088
0.016509 1.000000 0.054963
0.019464 1.000000 0.055009
0.023105 1.000000 0.055005
0.027552 1.000000 0.054946
0.033189 1.000000 0.054748
0.039752 1.000000 0.054667
0.047396 1.000000 0.054705
0.057343 1.000000 0.054774
0.069876 1.000000 0.055212
0.087604 1.000000 0.056489
0.120202 1.000000 0.054419
0.479781 1.000000 0.055135
1.000000 1.000000 0.054550
0.000000 0.000000 0.110283
0.519326 0.000000 0.109974
0.881868 0.000000 0.110889
0.914366 0.000000 0.108408
0.931955 0.000000 0.109627
0.942635 0.000000 0.108617
0.951371 0.000000 0.110096
0.959185 0.000000 0.110365
0.965972 0.000000 0.110279
0.971807 0.000000 0.110152
0.976422 0.000000 0.110275
0.980159 0.000000 0.110188
0.983189 0.000000 0.110169
0.985892 0.000000 0.110204
0.988018 0.000000 0.110137
0.990645 0.000000 0.110310
0.993694 0.000000 0.110448