# vtk DataFile Version 2.0
Mesh for Fierro
ASCII 
DATASET UNSTRUCTURED_GRID

POINTS 2527 float
0.000000 0.000000 0.000000
0.182626 0.000000 0.000000
0.340364 0.000000 0.000000
0.467583 0.000000 0.000000
0.565573 0.000000 0.000000
0.639569 0.000000 0.000000
0.698371 0.000000 0.000000
0.746128 0.000000 0.000000
0.786799 0.000000 0.000000
0.819913 0.000000 0.000000
0.848755 0.000000 0.000000
0.873594 0.000000 0.000000
0.895992 0.000000 0.000000
0.915537 0.000000 0.000000
0.933948 0.000000 0.000000
0.951572 0.000000 0.000000
0.967926 0.000000 0.000000
0.984120 0.000000 0.000000
1.000000 0.000000 0.000000
0.000000 0.015904 0.000000
0.181656 0.017292 0.000000
0.338342 0.020943 0.000000
0.464748 0.027784 0.000000
0.562107 0.036220 0.000000
0.635643 0.046767 0.000000
0.694046 0.058531 0.000000
0.740946 0.071433 0.000000
0.780670 0.085833 0.000000
0.813601 0.100548 0.000000
0.841555 0.114494 0.000000
0.866783 0.128622 0.000000
0.888821 0.142498 0.000000
0.909637 0.154035 0.000000
0.928797 0.163721 0.000000
0.947375 0.171916 0.000000
0.964992 0.177040 0.000000
0.982725 0.181661 0.000000
1.000000 0.182560 0.000000
0.000000 0.032091 0.000000
0.177033 0.035006 0.000000
0.331592 0.041677 0.000000
0.455638 0.055088 0.000000
0.551870 0.071036 0.000000
0.624464 0.091232 0.000000
0.682320 0.113623 0.000000
0.728762 0.138556 0.000000
0.766828 0.165422 0.000000
0.799413 0.192368 0.000000
0.826785 0.219397 0.000000
0.851632 0.244451 0.000000
0.873932 0.269428 0.000000
0.895672 0.290261 0.000000
0.916630 0.307679 0.000000
0.937511 0.321995 0.000000
0.958315 0.331588 0.000000
0.979053 0.338340 0.000000
1.000000 0.340382 0.000000
0.000000 0.048385 0.000000
0.171911 0.052612 0.000000
0.321997 0.062493 0.000000
0.442945 0.081752 0.000000
0.536723 0.104068 0.000000
0.606702 0.132529 0.000000
0.662494 0.164036 0.000000
0.706681 0.198003 0.000000
0.741997 0.235494 0.000000
0.771622 0.270768 0.000000
0.797396 0.306942 0.000000
0.822377 0.340372 0.000000
0.844808 0.373904 0.000000
0.868408 0.401012 0.000000
0.892602 0.424059 0.000000
0.918242 0.442950 0.000000
0.944919 0.455635 0.000000
0.972214 0.464751 0.000000
1.000000 0.467574 0.000000
0.000000 0.066048 0.000000
0.163754 0.071202 0.000000
0.307672 0.083371 0.000000
0.424064 0.107398 0.000000
0.515864 0.135459 0.000000
0.582883 0.170552 0.000000
0.636761 0.209077 0.000000
0.678509 0.250515 0.000000
0.710854 0.295476 0.000000
0.738022 0.338504 0.000000
0.762489 0.380214 0.000000
0.787335 0.418932 0.000000
0.809760 0.458192 0.000000
0.836437 0.489421 0.000000
0.864542 0.515872 0.000000
0.895932 0.536725 0.000000
0.928958 0.551871 0.000000
0.963781 0.562105 0.000000
1.000000 0.565576 0.000000
0.000000 0.084470 0.000000
0.154053 0.090364 0.000000
0.290248 0.104333 0.000000
0.401009 0.131587 0.000000
0.489415 0.163567 0.000000
0.552992 0.203952 0.000000
0.604617 0.246822 0.000000
0.642983 0.293464 0.000000
0.671073 0.342961 0.000000
0.697123 0.390077 0.000000
0.719316 0.436830 0.000000
0.743120 0.478073 0.000000
0.765917 0.518862 0.000000
0.796046 0.552985 0.000000
0.829447 0.582877 0.000000
0.867471 0.606701 0.000000
0.908774 0.624464 0.000000
0.953230 0.635644 0.000000
1.000000 0.639564 0.000000
0.000000 0.104011 0.000000
0.142538 0.111165 0.000000
0.269425 0.126074 0.000000
0.373913 0.155192 0.000000
0.458183 0.190240 0.000000
0.518854 0.234082 0.000000
0.569022 0.280616 0.000000
0.603151 0.331046 0.000000
0.627780 0.384101 0.000000
0.652343 0.433741 0.000000
0.672353 0.483202 0.000000
0.696061 0.527145 0.000000
0.719383 0.569020 0.000000
0.753182 0.604623 0.000000
0.790926 0.636760 0.000000
0.835964 0.662491 0.000000
0.886370 0.682320 0.000000
0.941475 0.694045 0.000000
1.000000 0.698372 0.000000
0.000000 0.126441 0.000000
0.128642 0.133223 0.000000
0.244466 0.148370 0.000000
0.340377 0.177623 0.000000
0.418931 0.212665 0.000000
0.478081 0.256880 0.000000
0.527140 0.303938 0.000000
0.557838 0.354103 0.000000
0.580828 0.406917 0.000000
0.603301 0.459018 0.000000
0.622775 0.509950 0.000000
0.645892 0.557834 0.000000
0.668958 0.603155 0.000000
0.706533 0.642981 0.000000
0.749485 0.678511 0.000000
0.801997 0.706683 0.000000
0.861445 0.728763 0.000000
0.928567 0.740945 0.000000
1.000000 0.746137 0.000000
0.000000 0.151244 0.000000
0.114503 0.158445 0.000000
0.219394 0.173215 0.000000
0.306947 0.202606 0.000000
0.380208 0.237511 0.000000
0.436829 0.280684 0.000000
0.483195 0.327648 0.000000
0.509956 0.377227 0.000000
0.532250 0.428398 0.000000
0.552436 0.480569 0.000000
0.571608 0.532258 0.000000
0.593083 0.580828 0.000000
0.615897 0.627779 0.000000
0.657041 0.671074 0.000000
0.704523 0.710853 0.000000
0.764505 0.741995 0.000000
0.834575 0.766827 0.000000
0.914165 0.780670 0.000000
1.000000 0.786796 0.000000
0.000000 0.180082 0.000000
0.100538 0.186403 0.000000
0.192367 0.200585 0.000000
0.270765 0.228376 0.000000
0.338507 0.261978 0.000000
0.390076 0.302877 0.000000
0.433741 0.347658 0.000000
0.459026 0.396702 0.000000
0.480565 0.447561 0.000000
0.499999 0.500001 0.000000
0.519425 0.552440 0.000000
0.540976 0.603304 0.000000
0.566260 0.652340 0.000000
0.609924 0.697123 0.000000
0.661495 0.738023 0.000000
0.729237 0.771625 0.000000
0.807634 0.799417 0.000000
0.899448 0.813600 0.000000
1.000000 0.819929 0.000000
0.000000 0.213199 0.000000
0.085838 0.219328 0.000000
0.165424 0.233172 0.000000
0.235495 0.258005 0.000000
0.295476 0.289146 0.000000
0.342960 0.328927 0.000000
0.384100 0.372221 0.000000
0.406919 0.419169 0.000000
0.428392 0.467748 0.000000
0.447570 0.519439 0.000000
0.467747 0.571607 0.000000
0.490047 0.622774 0.000000
0.516799 0.672353 0.000000
0.563175 0.719314 0.000000
0.619782 0.762491 0.000000
0.693058 0.797392 0.000000
0.780615 0.826794 0.000000
0.885519 0.841542 0.000000
1.000000 0.848720 0.000000
0.000000 0.253872 0.000000
0.071428 0.259058 0.000000
0.138554 0.271237 0.000000
0.198004 0.293318 0.000000
0.250514 0.321491 0.000000
0.293466 0.357016 0.000000
0.331044 0.396848 0.000000
0.354106 0.442164 0.000000
0.377227 0.490047 0.000000
0.396697 0.540979 0.000000
0.419173 0.593077 0.000000
0.442165 0.645896 0.000000
0.472855 0.696062 0.000000
0.521922 0.743115 0.000000
0.581075 0.787339 0.000000
0.659614 0.822370 0.000000
0.755538 0.851638 0.000000
0.871373 0.866785 0.000000
1.000000 0.873554 0.000000
0.000000 0.301627 0.000000
0.058533 0.305951 0.000000
0.113632 0.317687 0.000000
0.164030 0.337511 0.000000
0.209086 0.363240 0.000000
0.246819 0.395383 0.000000
0.280617 0.430982 0.000000
0.303939 0.472858 0.000000
0.327645 0.516800 0.000000
0.347658 0.566257 0.000000
0.372221 0.615903 0.000000
0.396847 0.668953 0.000000
0.430982 0.719386 0.000000
0.481143 0.765913 0.000000
0.541806 0.809758 0.000000
0.626078 0.844812 0.000000
0.730582 0.873904 0.000000
0.857456 0.888808 0.000000
1.000000 0.895926 0.000000
0.000000 0.360433 0.000000
0.046766 0.364356 0.000000
0.091226 0.375528 0.000000
0.132535 0.393295 0.000000
0.170543 0.417113 0.000000
0.203955 0.447010 0.000000
0.234086 0.481140 0.000000
0.256881 0.521919 0.000000
0.280687 0.563174 0.000000
0.302877 0.609924 0.000000
0.328928 0.657040 0.000000
0.357015 0.706535 0.000000
0.395385 0.753181 0.000000
0.447010 0.796046 0.000000
0.510590 0.836447 0.000000
0.598994 0.868406 0.000000
0.709759 0.895694 0.000000
0.845941 0.909628 0.000000
1.000000 0.915375 0.000000
0.000000 0.434427 0.000000
0.036220 0.437893 0.000000
0.071043 0.448135 0.000000
0.104063 0.463282 0.000000
0.135468 0.484143 0.000000
0.163559 0.510580 0.000000
0.190239 0.541810 0.000000
0.212666 0.581074 0.000000
0.237506 0.619785 0.000000
0.261979 0.661494 0.000000
0.289144 0.704522 0.000000
0.321493 0.749487 0.000000
0.363239 0.790913 0.000000
0.417111 0.829455 0.000000
0.484141 0.864529 0.000000
0.575926 0.892617 0.000000
0.692354 0.916586 0.000000
0.836203 0.928820 0.000000
1.000000 0.934004 0.000000
0.000000 0.532418 0.000000
0.027785 0.535248 0.000000
0.055080 0.544356 0.000000
0.081756 0.557044 0.000000
0.107383 0.575928 0.000000
0.131599 0.598991 0.000000
0.155185 0.626087 0.000000
0.177627 0.659618 0.000000
0.202608 0.693055 0.000000
0.228376 0.729236 0.000000
0.258007 0.764506 0.000000
0.293316 0.801996 0.000000
0.337513 0.835969 0.000000
0.393296 0.867467 0.000000
0.463281 0.895938 0.000000
0.557046 0.918242 0.000000
0.678017 0.937518 0.000000
0.828065 0.947405 0.000000
1.000000 0.951762 0.000000
0.000000 0.659635 0.000000
0.020926 0.661667 0.000000
0.041689 0.668429 0.000000
0.062488 0.678020 0.000000
0.083411 0.692357 0.000000
0.104295 0.709756 0.000000
0.126098 0.730594 0.000000
0.148367 0.755537 0.000000
0.173213 0.780609 0.000000
0.200585 0.807635 0.000000
0.233170 0.834576 0.000000
0.271239 0.861445 0.000000
0.317683 0.886369 0.000000
0.375529 0.908773 0.000000
0.448133 0.928958 0.000000
0.544357 0.944917 0.000000
0.668426 0.958312 0.000000
0.822921 0.964959 0.000000
1.000000 0.967862 0.000000
0.000000 0.817395 0.000000
0.017287 0.818300 0.000000
0.035049 0.822924 0.000000
0.052577 0.828063 0.000000
0.071186 0.836198 0.000000
0.090381 0.845939 0.000000
0.111193 0.857423 0.000000
0.133212 0.871355 0.000000
0.158458 0.885498 0.000000
0.186398 0.899456 0.000000
0.219333 0.914158 0.000000
0.259057 0.928571 0.000000
0.305953 0.941472 0.000000
0.364356 0.953231 0.000000
0.437893 0.963784 0.000000
0.535248 0.972213 0.000000
0.661667 0.979075 0.000000
0.818305 0.982710 0.000000
1.000000 0.984094 0.000000
0.000000 1.000000 0.000000
0.015877 1.000000 0.000000
0.032121 1.000000 0.000000
0.048201 1.000000 0.000000
0.066035 1.000000 0.000000
0.084669 1.000000 0.000000
0.104088 1.000000 0.000000
0.126440 1.000000 0.000000
0.151293 1.000000 0.000000
0.180068 1.000000 0.000000
0.213213 1.000000 0.000000
0.253863 1.000000 0.000000
0.301632 1.000000 0.000000
0.360435 1.000000 0.000000
0.434425 1.000000 0.000000
0.532422 1.000000 0.000000
0.659622 1.000000 0.000000
0.817434 1.000000 0.000000
1.000000 1.000000 0.000000
0.000000 0.000000 0.054996
0.182624 0.000000 0.054995
0.340358 0.000000 0.055006
0.467586 0.000000 0.055000
0.565569 0.000000 0.055003
[...]
POINT_DATA 2527 
VECTORS pos float 
0.000000 0.000000 0.000000
0.182626 0.000000 0.000000
0.340364 0.000000 0.000000
0.467583 0.000000 0.000000
0.565573 0.000000 0.000000
0.639569 0.000000 0.000000
0.698371 0.000000 0.000000
0.746128 0.000000 0.000000
0.786799 0.000000 0.000000
0.819913 0.000000 0.000000
0.848755 0.000000 0.000000
0.873594 0.000000 0.000000
0.895992 0.000000 0.000000
0.915537 0.000000 0.000000
0.933948 0.000000 0.000000
0.951572 0.000000 0.000000
0.967926 0.000000 0.000000
0.984120 0.000000 0.000000
1.000000 0.000000 0.000000
0.000000 0.015904 0.000000
0.181656 0.017292 0.000000
0.338342 0.020943 0.000000
0.464748 0.027784 0.000000
0.562107 0.036220 0.000000
0.635643 0.046767 0.000000
0.694046 0.058531 0.000000
0.740946 0.071433 0.000000
0.780670 0.085833 0.000000
0.813601 0.100548 0.000000
0.841555 0.114494 0.000000
0.866783 0.128622 0.000000
0.888821 0.142498 0.000000
0.909637 0.154035 0.000000
0.928797 0.163721 0.000000
0.947375 0.171916 0.000000
0.964992 0.177040 0.000000
0.982725 0.181661 0.000000
1.000000 0.182560 0.000000
0.000000 0.032091 0.000000
0.177033 0.035006 0.000000
0.331592 0.041677 0.000000
0.455638 0.055088 0.000000
0.551870 0.071036 0.000000
0.624464 0.091232 0.000000
0.682320 0.113623 0.000000
0.728762 0.138556 0.000000
0.766828 0.165422 0.000000
0.799413 0.192368 0.000000
0.826785 0.219397 0.000000
0.851632 0.244451 0.000000
0.873932 0.269428 0.000000
0.895672 0.290261 0.000000
0.916630 0.307679 0.000000
0.937511 0.321995 0.000000
0.958315 0.331588 0.000000
0.979053 0.338340 0.000000
1.000000 0.340382 0.000000
0.000000 0.048385 0.000000
0.171911 0.052612 0.000000
0.321997 0.062493 0.000000
0.442945 0.081752 0.000000
0.536723 0.104068 0.000000
0.606702 0.132529 0.000000
0.662494 0.164036 0.000000
0.706681 0.198003 0.000000
0.741997 0.235494 0.000000
0.771622 0.270768 0.000000
0.797396 0.306942 0.000000
0.822377 0.340372 0.000000
0.844808 0.373904 0.000000
0.868408 0.401012 0.000000
0.892602 0.424059 0.000000
0.918242 0.442950 0.000000
0.944919 0.455635 0.000000
0.972214 0.464751 0.000000
1.000000 0.467574 0.000000
0.000000 0.066048 0.000000
0.163754 0.071202 0.000000
0.307672 0.083371 0.000000
0.424064 0.107398 0.000000
0.515864 0.135459 0.000000
0.582883 0.170552 0.000000
0.636761 0.209077 0.000000
0.678509 0.250515 0.000000
0.710854 0.295476 0.000000
0.738022 0.338504 0.000000
0.762489 0.380214 0.000000
0.787335 0.418932 0.000000
0.809760 0.458192 0.000000
0.836437 0.489421 0.000000
0.864542 0.515872 0.000000
0.895932 0.536725 0.000000
0.928958 0.551871 0.000000
0.963781 0.562105 0.000000
1.000000 0.565576 0.000000
0.000000 0.084470 0.000000
0.154053 0.090364 0.000000
0.290248 0.104333 0.000000
0.401009 0.131587 0.000000
0.489415 0.163567 0.000000
0.552992 0.203952 0.000000
0.604617 0.246822 0.000000
0.642983 0.293464 0.000000
0.671073 0.342961 0.000000
0.697123 0.390077 0.000000
0.719316 0.436830 0.000000
0.743120 0.478073 0.000000
0.765917 0.518862 0.000000
0.796046 0.552985 0.000000
0.829447 0.582877 0.000000
0.867471 0.606701 0.000000
0.908774 0.624464 0.000000
0.953230 0.635644 0.000000
1.000000 0.639564 0.000000
0.000000 0.104011 0.000000
0.142538 0.111165 0.000000
0.269425 0.126074 0.000000
0.373913 0.155192 0.000000
0.458183 0.190240 0.000000
0.518854 0.234082 0.000000
0.569022 0.280616 0.000000
0.603151 0.331046 0.000000
0.627780 0.384101 0.000000
0.652343 0.433741 0.000000
0.672353 0.483202 0.000000
0.696061 0.527145 0.000000
0.719383 0.569020 0.000000
0.753182 0.604623 0.000000
0.790926 0.636760 0.000000
0.835964 0.662491 0.000000
0.886370 0.682320 0.000000
0.941475 0.694045 0.000000
1.000000 0.698372 0.000000
0.000000 0.126441 0.000000
0.128642 0.133223 0.000000
0.244466 0.148370 0.000000
0.340377 0.177623 0.000000
0.418931 0.212665 0.000000
0.478081 0.256880 0.000000
0.527140 0.303938 0.000000
0.557838 0.354103 0.000000
0.580828 0.406917 0.000000
0.603301 0.459018 0.000000
0.622775 0.509950 0.000000
0.645892 0.557834 0.000000
0.668958 0.603155 0.000000
0.706533 0.642981 0.000000
0.749485 0.678511 0.000000
0.801997 0.706683 0.000000
0.861445 0.728763 0.000000
0.928567 0.740945 0.000000
1.000000 0.746137 0.000000
0.000000 0.151244 0.000000
0.114503 0.158445 0.000000
0.219394 0.173215 0.000000
0.306947 0.202606 0.000000
0.380208 0.237511 0.000000
0.436829 0.280684 0.000000
0.483195 0.327648 0.000000
0.509956 0.377227 0.000000
0.532250 0.428398 0.000000
0.552436 0.480569 0.000000
0.571608 0.532258 0.000000
0.593083 0.580828 0.000000
0.615897 0.627779 0.000000
0.657041 0.671074 0.000000
0.704523 0.710853 0.000000
0.764505 0.741995 0.000000
0.834575 0.766827 0.000000
0.914165 0.780670 0.000000
1.000000 0.786796 0.000000
0.000000 0.180082 0.000000
0.100538 0.186403 0.000000
0.192367 0.200585 0.000000
0.270765 0.228376 0.000000
0.338507 0.261978 0.000000
0.390076 0.302877 0.000000
0.433741 0.347658 0.000000
0.459026 0.396702 0.000000
0.480565 0.447561 0.000000
0.499999 0.500001 0.000000
0.519425 0.552440 0.000000
0.540976 0.603304 0.000000
0.566260 0.652340 0.000000
0.609924 0.697123 0.000000
0.661495 0.738023 0.000000
0.729237 0.771625 0.000000
0.807634 0.799417 0.000000
0.899448 0.813600 0.000000
1.000000 0.819929 0.000000
0.000000 0.213199 0.000000
0.085838 0.219328 0.000000
0.165424 0.233172 0.000000
0.235495 0.258005 0.000000
0.295476 0.289146 0.000000
0.342960 0.328927 0.000000
0.384100 0.372221 0.000000
0.406919 0.419169 0.000000
0.428392 0.467748 0.000000
0.447570 0.519439 0.000000
0.467747 0.571607 0.000000
0.490047 0.622774 0.000000
0.516799 0.672353 0.000000
0.563175 0.719314 0.000000
0.619782 0.762491 0.000000
0.693058 0.797392 0.000000
0.780615 0.826794 0.000000
0.885519 0.841542 0.000000
1.000000 0.848720 0.000000
0.000000 0.253872 0.000000
0.071428 0.259058 0.000000
0.138554 0.271237 0.000000
0.198004 0.293318 0.000000
0.250514 0.321491 0.000000
0.293466 0.357016 0.000000
0.331044 0.396848 0.000000
0.354106 0.442164 0.000000
0.377227 0.490047 0.000000
0.396697 0.540979 0.000000
0.419173 0.593077 0.000000
0.442165 0.645896 0.000000
0.472855 0.696062 0.000000
0.521922 0.743115 0.000000
0.581075 0.787339 0.000000
0.659614 0.822370 0.000000
0.755538 0.851638 0.000000
0.871373 0.866785 0.000000
1.000000 0.873554 0.000000
0.000000 0.301627 0.000000
0.058533 0.305951 0.000000
0.113632 0.317687 0.000000
0.164030 0.337511 0.000000
0.209086 0.363240 0.000000
0.246819 0.395383 0.000000
0.280617 0.430982 0.000000
0.303939 0.472858 0.000000
0.327645 0.516800 0.000000
0.347658 0.566257 0.000000
0.372221 0.615903 0.000000
0.396847 0.668953 0.000000
0.430982 0.719386 0.000000
0.481143 0.765913 0.000000
0.541806 0.809758 0.000000
0.626078 0.844812 0.000000
0.730582 0.873904 0.000000
0.857456 0.888808 0.000000
1.000000 0.895926 0.000000
0.000000 0.360433 0.000000
0.046766 0.364356 0.000000
0.091226 0.375528 0.000000
0.132535 0.393295 0.000000
0.170543 0.417113 0.000000
0.203955 0.447010 0.000000
0.234086 0.481140 0.000000
0.256881 0.521919 0.000000
0.280687 0.563174 0.000000
0.302877 0.609924 0.000000
0.328928 0.657040 0.000000
0.357015 0.706535 0.000000
0.395385 0.753181 0.000000
0.447010 0.796046 0.000000
0.510590 0.836447 0.000000
0.598994 0.868406 0.000000
0.709759 0.895694 0.000000
0.845941 0.909628 0.000000
1.000000 0.915375 0.000000
0.000000 0.434427 0.000000
0.036220 0.437893 0.000000
0.071043 0.448135 0.000000
0.104063 0.463282 0.000000
0.135468 0.484143 0.000000
0.163559 0.510580 0.000000
0.190239 0.541810 0.000000
0.212666 0.581074 0.000000
0.237506 0.619785 0.000000
0.261979 0.661494 0.000000
0.289144 0.704522 0.000000
0.321493 0.749487 0.000000
0.363239 0.790913 0.000000
0.417111 0.829455 0.000000
0.484141 0.864529 0.000000
0.575926 0.892617 0.000000
0.692354 0.916586 0.000000
0.836203 0.928820 0.000000
1.000000 0.934004 0.000000
0.000000 0.532418 0.000000
0.027785 0.535248 0.000000
0.055080 0.544356 0.000000
0.081756 0.557044 0.000000
0.107383 0.575928 0.000000
0.131599 0.598991 0.000000
0.155185 0.626087 0.000000
0.177627 0.659618 0.000000
0.202608 0.693055 0.000000
0.228376 0.729236 0.000000
0.258007 0.764506 0.000000
0.293316 0.801996 0.000000
0.337513 0.835969 0.000000
0.393296 0.867467 0.000000
0.463281 0.895938 0.000000
0.557046 0.918242 0.000000
0.678017 0.937518 0.000000
0.828065 0.947405 0.000000
1.000000 0.951762 0.000000
0.000000 0.659635 0.000000
0.020926 0.661667 0.000000
0.041689 0.668429 0.000000
0.062488 0.678020 0.000000
0.083411 0.692357 0.000000
0.104295 0.709756 0.000000
0.126098 0.730594 0.000000
0.148367 0.755537 0.000000
0.173213 0.780609 0.000000
0.200585 0.807635 0.000000
0.233170 0.834576 0.000000
0.271239 0.861445 0.000000
0.317683 0.886369 0.000000
0.375529 0.908773 0.000000
0.448133 0.928958 0.000000
0.544357 0.944917 0.000000
0.668426 0.958312 0.000000
0.822921 0.964959 0.000000
1.000000 0.967862 0.000000
0.000000 0.817395 0.000000
0.017287 0.818300 0.000000
0.035049 0.822924 0.000000
0.052577 0.828063 0.000000
0.071186 0.836198 0.000000
0.090381 0.845939 0.000000
0.111193 0.857423 0.000000
0.133212 0.871355 0.000000
0.158458 0.885498 0.000000
0.186398 0.899456 0.000000
0.219333 0.914158 0.000000
0.259057 0.928571 0.000000
0.305953 0.941472 0.000000
0.364356 0.953231 0.000000
0.437893 0.963784 0.000000
0.535248 0.972213 0.000000
0.661667 0.979075 0.000000
0.818305 0.982710 0.000000
1.000000 0.984094 0.000000
0.000000 1.000000 0.000000
0.015877 1.000000 0.000000
0.032121 1.000000 0.000000
0.048201 1.000000 0.000000
0.066035 1.000000 0.000000
0.084669 1.000000 0.000000
0.104088 1.000000 0.000000
0.126440 1.000000 0.000000
0.151293 1.000000 0.000000
0.180068 1.000000 0.000000
0.213213 1.000000 0.000000
0.253863 1.000000 0.000000
0.301632 1.000000 0.000000
0.360435 1.000000 0.000000
0.434425 1.000000 0.000000
0.532422 1.000000 0.000000
0.659622 1.000000 0.000000
0.817434 1.000000 0.000000
1.000000 1.000000 0.000000
0.000000 0.000000 0.054996
0.182624 0.000000 0.054995
0.340358 0.000000 0.055006
0.467586 0.000000 0.055000
0.565569 0.000000 0.055003
0.639570 0.000000 0.055000
0.698364 0.000000 0.055004
0.746137 0.000000 0.054996
0.786790 0.000000 0.055005
0.819925 0.000000 0.054998
0.848736 0.000000 0.055007
0.873530 0.000000 0.054977
0.895913 0.000000 0.054981
0.915436 0.000000 0.055034
0.933913 0.000000 0.055019
0.951808 0.000000 0.055009
0.967971 0.000000 0.054996
0.984179 0.000000 0.054962
1.000000 0.000000 0.054995
0.000000 0.015809 0.054981
0.181654 0.017309 0.055002
0.338341 0.020928 0.055001
0.464750 0.027790 0.054998
0.562105 0.036213 0.055001
0.635645 0.046772 0.054998
0.694044 0.058525 0.055003
0.740947 0.071431 0.055000
0.780669 0.085835 0.055000
0.813604 0.100549 0.054999
0.841553 0.114491 0.055006
0.866770 0.128627 0.055000
0.888825 0.142607 0.054998
0.909638 0.154100 0.055003
0.928797 0.163806 0.055000
0.947416 0.171919 0.055005
0.964999 0.177056 0.055005
0.982682 0.181660 0.054999
1.000000 0.182663 0.054987
0.000000 0.032008 0.055005
0.177055 0.035005 0.055004
0.331578 0.041671 0.054999
0.455635 0.055089 0.054999
0.551872 0.071034 0.055001
0.624462 0.091233 0.054999
0.682323 0.113623 0.055002
0.728760 0.138556 0.054999
0.766831 0.165421 0.055000
0.799413 0.192371 0.055001
0.826784 0.219406 0.054998
0.851637 0.244433 0.055001
0.873901 0.269414 0.054997
0.895676 0.290226 0.055001
0.916614 0.307649 0.055001
0.937505 0.321982 0.054998
0.958331 0.331578 0.054995
0.979074 0.338339 0.055002
1.000000 0.340348 0.055005
0.000000 0.048226 0.054962
0.171921 0.052590 0.055003
0.321981 0.062491 0.055000
0.442949 0.081753 0.055000
0.536728 0.104071 0.055000
0.606701 0.132529 0.054999
0.662492 0.164036 0.055001
0.706683 0.198004 0.055000
0.741996 0.235493 0.055000
0.771621 0.270766 0.054999
0.797396 0.306925 0.055001
0.822373 0.340380 0.054999
0.844808 0.373925 0.054998
0.868409 0.401014 0.054999
0.892612 0.424070 0.055000
0.918251 0.442948 0.055001
0.944909 0.455638 0.055001
0.972213 0.464750 0.054998
1.000000 0.467590 0.055002
0.000000 0.066078 0.054976
0.163791 0.071206 0.055001
0.307655 0.083385 0.055002
0.424066 0.107386 0.054998
0.515861 0.135465 0.055001
0.582887 0.170549 0.055000
0.636760 0.209082 0.055000
0.678507 0.250513 0.055000
0.710855 0.295479 0.055000
0.738022 0.338502 0.055001
0.762491 0.380225 0.055000
0.787331 0.418921 0.054999
0.809759 0.458197 0.055001
0.836442 0.489402 0.055004
0.864535 0.515858 0.055001
0.895928 0.536725 0.055001
0.928968 0.551870 0.054998
0.963784 0.562105 0.055001
1.000000 0.565569 0.054999
0.000000 0.084541 0.055033
0.154106 0.090360 0.055003
0.290227 0.104326 0.055003
0.401020 0.131593 0.055000
0.489401 0.163554 0.055003
0.552998 0.203953 0.054996
0.604611 0.246822 0.055003
0.642984 0.293464 0.055000
0.671071 0.342960 0.055000
0.697124 0.390076 0.054999
0.719311 0.436820 0.055000
0.743124 0.478087 0.055000
0.765908 0.518854 0.055000
0.796048 0.553000 0.054998
0.829451 0.582889 0.055000
0.867473 0.606703 0.055001
0.908764 0.624465 0.055000
0.953230 0.635645 0.054999
1.000000 0.639568 0.055004
0.000000 0.104073 0.054997
0.142590 0.111172 0.055003
0.269400 0.126096 0.055000
0.373928 0.155189 0.055001
0.458198 0.190245 0.055003
0.518861 0.234091 0.054998
0.569012 0.280614 0.055002
0.603150 0.331046 0.054999
0.627780 0.384102 0.055000
0.652340 0.433744 0.054999
0.672357 0.483207 0.055000
0.696060 0.527140 0.055000
0.719388 0.569012 0.055002
0.753175 0.604613 0.055001
0.790919 0.636758 0.054998
0.835962 0.662494 0.055000
0.886380 0.682320 0.055000
0.941474 0.694045 0.055001
1.000000 0.698374 0.054991
0.000000 0.126466 0.054980
0.128624 0.133234 0.054999
0.244439 0.148364 0.055001
0.340379 0.177625 0.055001
0.418918 0.212669 0.055000
0.478084 0.256878 0.055000
0.527139 0.303940 0.055000
0.557840 0.354100 0.055000
0.580830 0.406916 0.055000
0.603306 0.459015 0.055001
0.622776 0.509949 0.055000
0.645895 0.557837 0.055000
0.668956 0.603154 0.054999
0.706536 0.642981 0.055000
0.749486 0.678509 0.055001
0.801996 0.706681 0.055000
0.861444 0.728761 0.055000
0.928567 0.740947 0.054999
1.000000 0.746132 0.055005
0.000000 0.151265 0.054997
0.114485 0.158443 0.054999
0.219400 0.173218 0.054999
0.306933 0.202604 0.054998
0.380220 0.237510 0.055003
0.436824 0.280688 0.054998
0.483203 0.327646 0.055002
0.509951 0.377223 0.055000
0.532253 0.428393 0.055001
0.552440 0.480571 0.054999
0.571610 0.532255 0.055000
0.593083 0.580828 0.055000
0.615899 0.627778 0.055000
0.657039 0.671074 0.055000
0.704524 0.710853 0.054999
0.764506 0.741997 0.055000
0.834579 0.766830 0.054999
0.914166 0.780667 0.055001
1.000000 0.786797 0.054995
0.000000 0.180076 0.055000
0.100551 0.186398 0.055002
0.192370 0.200585 0.055002
0.270767 0.228377 0.054999
0.338501 0.261980 0.055000
0.390077 0.302875 0.055001
0.433740 0.347661 0.054999
0.459021 0.396696 0.055000
0.480563 0.447559 0.055000
0.500000 0.499998 0.055000
0.519432 0.552440 0.055001
0.540981 0.603309 0.055000
0.566258 0.652340 0.054999
0.609925 0.697122 0.055000
0.661494 0.738023 0.055000
0.729235 0.771621 0.054999
0.807630 0.799413 0.055002
0.899444 0.813607 0.054999
1.000000 0.819932 0.054994
0.000000 0.213211 0.055003
0.085831 0.219330 0.055000
0.165422 0.233172 0.055000
0.235492 0.258005 0.055000
0.295481 0.289144 0.055000
0.342960 0.328929 0.054999
0.384100 0.372220 0.055000
0.406920 0.419171 0.055000
0.428390 0.467744 0.055000
0.447563 0.519433 0.055000
0.467746 0.571610 0.055000
0.490047 0.622779 0.055000
0.516795 0.672353 0.055001
0.563177 0.719315 0.054999
0.619779 0.762492 0.055000
0.693071 0.797396 0.054998
0.780605 0.826788 0.054995
0.885516 0.841560 0.055004
1.000000 0.848783 0.055013
0.000000 0.253863 0.054997
0.071432 0.259054 0.054999
0.138557 0.271235 0.055000
0.198006 0.293317 0.055000
0.250511 0.321493 0.054999
0.293465 0.357015 0.055000
0.331046 0.396850 0.055000
0.354104 0.442161 0.055000
0.377224 0.490049 0.055000
0.396692 0.540983 0.055000
0.419171 0.593081 0.055000
0.442162 0.645897 0.055000
0.472860 0.696062 0.054999
0.521921 0.743117 0.055002
0.581067 0.787336 0.054999
0.659619 0.822372 0.055003
0.755559 0.851642 0.054995
0.871384 0.866766 0.055000
1.000000 0.873521 0.055033
0.000000 0.301637 0.055004
0.058535 0.305954 0.055004
0.113619 0.317687 0.055000
0.164027 0.337507 0.055001
0.209082 0.363235 0.055001
0.246825 0.395382 0.055000
0.280613 0.430977 0.054999
0.303936 0.472861 0.055000
0.327645 0.516794 0.055000
0.347659 0.566258 0.055000
0.372223 0.615901 0.055000
0.396846 0.668953 0.055001
0.430979 0.719387 0.054997
0.481145 0.765915 0.055002
0.541807 0.809772 0.054999
0.626101 0.844802 0.055003
0.730579 0.873924 0.055002
0.857452 0.888825 0.054995
1.000000 0.895912 0.054972
0.000000 0.360431 0.054999
0.046763 0.364358 0.054997
0.091237 0.375532 0.055000
0.132534 0.393299 0.055000
0.170551 0.417114 0.055000
0.203949 0.447009 0.055000
0.234088 0.481149 0.055001
0.256881 0.521917 0.055001
0.280687 0.563178 0.054999
0.302878 0.609924 0.055001
0.328926 0.657040 0.054999
0.357018 0.706535 0.055001
0.395381 0.753177 0.055000
0.447010 0.796051 0.054999
0.510574 0.836427 0.055000
0.598996 0.868414 0.054999
0.709738 0.895675 0.054999
0.845972 0.909639 0.055000
1.000000 0.915466 0.054971
0.000000 0.434431 0.055003
0.036226 0.437886 0.055002
0.071026 0.448136 0.055002
0.104067 0.463272 0.054998
0.135458 0.484140 0.055000
0.163572 0.510576 0.054998
0.190227 0.541807 0.054999
0.212664 0.581069 0.055001
0.237508 0.619781 0.055000
0.261977 0.661494 0.055000
0.289147 0.704523 0.054999
0.321490 0.749486 0.055001
0.363239 0.790918 0.054998
0.417115 0.829452 0.055001
0.484140 0.864539 0.055000
0.575934 0.892608 0.055000
0.692340 0.916611 0.054999
0.836235 0.928797 0.054999
1.000000 0.933951 0.055036
0.000000 0.532409 0.054997
0.027780 0.535254 0.054996
0.055096 0.544359 0.055000
0.081750 0.557056 0.055001
0.107395 0.575934 0.055002
0.131586 0.599002 0.055000
0.155199 0.626101 0.055000
0.177627 0.659616 0.055002
0.202606 0.693069 0.054998
0.228378 0.729235 0.055000
0.258005 0.764507 0.055000
0.293318 0.801995 0.055000
0.337507 0.835970 0.055001
0.393300 0.867468 0.054998
0.463273 0.895931 0.055001
0.557054 0.918252 0.055000
0.678000 0.937506 0.055003
0.828104 0.947421 0.054999
1.000000 0.951791 0.055033
0.000000 0.659648 0.055004
0.020925 0.661654 0.055003
0.041676 0.668409 0.055001
0.062490 0.677996 0.055003
0.083388 0.692341 0.054998
0.104319 0.709738 0.054998
0.126074 0.730571 0.055008
0.148362 0.755552 0.055000
0.173215 0.780607 0.054998
0.200586 0.807632 0.055001
0.233171 0.834578 0.054999
0.271237 0.861444 0.055000
0.317686 0.886380 0.055001
0.375531 0.908761 0.055000
0.448137 0.928977 0.055001
0.544358 0.944902 0.055001
0.668414 0.958330 0.054998
0.822963 0.964974 0.055002
1.000000 0.967938 0.055031
0.000000 0.817328 0.054987
0.017316 0.818344 0.055003
0.035020 0.822978 0.055002
0.052582 0.828122 0.054999
0.071196 0.836232 0.055001
0.090360 0.845976 0.055002
0.111183 0.857429 0.054999
0.133229 0.871381 0.054995
0.158439 0.885513 0.054998
0.186393 0.899448 0.055001
0.219333 0.914163 0.055001
0.259054 0.928569 0.054999
0.305954 0.941469 0.055003
0.364359 0.953233 0.054998
0.437886 0.963777 0.055002
0.535254 0.972216 0.054998
0.661654 0.979076 0.055003
0.818343 0.982686 0.055003
1.000000 0.984196 0.054957
0.000000 1.000000 0.054889
0.015825 1.000000 0.054943
0.032069 1.000000 0.055038
0.048214 1.000000 0.055043
0.066051 1.000000 0.055052
0.084538 1.000000 0.054975
0.104083 1.000000 0.054958
0.126463 1.000000 0.055010
0.151216 1.000000 0.055001
0.180068 1.000000 0.055000
0.213204 1.000000 0.054997
0.253867 1.000000 0.055004
0.301628 1.000000 0.054993
0.360434 1.000000 0.055004
0.434431 1.000000 0.055000
0.532414 1.000000 0.055000
0.659640 1.000000 0.055001
0.817357 1.000000 0.054986
1.000000 1.000000 0.054945
0.000000 0.000000 0.110061
0.182626 0.000000 0.110002
0.340366 0.000000 0.110001
0.467584 0.000000 0.110003
0.565575 0.000000 0.109998
0.639562 0.000000 0.110000
0.698382 0.000000 0.110001
0.746124 0.000000 0.109999
0.786805 0.000000 0.110001
0.819927 0.000000 0.109999
0.848785 0.000000 0.110014
0.873522 0.000000 0.110022
0.895947 0.000000 0.109985
0.915468 0.000000 0.109953
0.933940 0.000000 0.109951
0.951760 0.000000 0.109965
0.967904 0.000000 0.109990