# vtk DataFile Version 2.0
Mesh for Fierro
ASCII 
DATASET UNSTRUCTURED_GRID

POINTS 2527 float
0.000000 0.000000 0.000000
0.172001 0.000000 0.000000
0.322883 0.000000 0.000000
0.447732 0.000000 0.000000
0.546177 0.000000 0.000000
0.621272 0.000000 0.000000
0.681939 0.000000 0.000000
0.731982 0.000000 0.000000
0.773910 0.000000 0.000000
0.809069 0.000000 0.000000
0.839045 0.000000 0.000000
0.865926 0.000000 0.000000
0.888732 0.000000 0.000000
0.910804 0.000000 0.000000
0.930498 0.000000 0.000000
0.948552 0.000000 0.000000
0.966242 0.000000 0.000000
0.983229 0.000000 0.000000
1.000000 0.000000 0.000000
0.000000 0.016761 0.000000
0.171084 0.018309 0.000000
0.321049 0.021537 0.000000
0.445083 0.028189 0.000000
0.542817 0.035897 0.000000
0.617684 0.045696 0.000000
0.678044 0.056506 0.000000
0.727164 0.068626 0.000000
0.768301 0.082081 0.000000
0.802858 0.095702 0.000000
0.832536 0.108651 0.000000
0.858834 0.121770 0.000000
0.882478 0.134648 0.000000
0.904273 0.145403 0.000000
0.924783 0.154369 0.000000
0.944382 0.162011 0.000000
0.963285 0.166827 0.000000
0.981684 0.171088 0.000000
1.000000 0.171946 0.000000
0.000000 0.033740 0.000000
0.166824 0.036722 0.000000
0.314659 0.043380 0.000000
0.436293 0.055902 0.000000
0.532743 0.070623 0.000000
0.606680 0.089366 0.000000
0.666553 0.110069 0.000000
0.715107 0.133417 0.000000
0.755265 0.158577 0.000000
0.788811 0.183661 0.000000
0.818203 0.208871 0.000000
0.844585 0.232410 0.000000
0.868253 0.255951 0.000000
0.891074 0.275633 0.000000
0.913080 0.292061 0.000000
0.935166 0.305599 0.000000
0.956614 0.314657 0.000000
0.978471 0.321048 0.000000
1.000000 0.322900 0.000000
0.000000 0.051437 0.000000
0.162007 0.055620 0.000000
0.305600 0.064832 0.000000
0.424051 0.083014 0.000000
0.518011 0.103729 0.000000
0.589527 0.130358 0.000000
0.647428 0.159661 0.000000
0.693726 0.191650 0.000000
0.731564 0.226869 0.000000
0.762899 0.260011 0.000000
0.790150 0.294367 0.000000
0.816985 0.326028 0.000000
0.840927 0.357909 0.000000
0.865744 0.383829 0.000000
0.890714 0.405876 0.000000
0.916985 0.424053 0.000000
0.944102 0.436293 0.000000
0.971806 0.445084 0.000000
1.000000 0.447724 0.000000
0.000000 0.069495 0.000000
0.154397 0.075211 0.000000
0.292053 0.086923 0.000000
0.405881 0.109286 0.000000
0.497696 0.135492 0.000000
0.566272 0.168512 0.000000
0.622051 0.204374 0.000000
0.666142 0.243487 0.000000
0.701216 0.285918 0.000000
0.730956 0.326990 0.000000
0.757381 0.366785 0.000000
0.783688 0.403977 0.000000
0.807795 0.441959 0.000000
0.835536 0.472154 0.000000
0.864509 0.497704 0.000000
0.896270 0.518014 0.000000
0.929374 0.532741 0.000000
0.964106 0.542816 0.000000
1.000000 0.546182 0.000000
0.000000 0.089200 0.000000
0.145412 0.095720 0.000000
0.275624 0.108930 0.000000
0.383825 0.134253 0.000000
0.472150 0.164466 0.000000
0.537353 0.202537 0.000000
0.590977 0.242675 0.000000
0.631698 0.287123 0.000000
0.662741 0.334408 0.000000
0.691396 0.379655 0.000000
0.716190 0.424733 0.000000
0.741892 0.464668 0.000000
0.766398 0.504168 0.000000
0.797461 0.537347 0.000000
0.831488 0.566267 0.000000
0.869643 0.589524 0.000000
0.910637 0.606682 0.000000
0.954300 0.617684 0.000000
1.000000 0.621267 0.000000
0.000000 0.111317 0.000000
0.134675 0.117532 0.000000
0.255955 0.131743 0.000000
0.357915 0.159076 0.000000
0.441953 0.192203 0.000000
0.504165 0.233601 0.000000
0.556420 0.277423 0.000000
0.592963 0.325794 0.000000
0.620821 0.376920 0.000000
0.648078 0.424874 0.000000
0.671013 0.473027 0.000000
0.696961 0.515777 0.000000
0.722576 0.556418 0.000000
0.757328 0.590982 0.000000
0.795628 0.622050 0.000000
0.840337 0.647428 0.000000
0.889928 0.666553 0.000000
0.943499 0.678043 0.000000
1.000000 0.681944 0.000000
0.000000 0.134079 0.000000
0.121783 0.141162 0.000000
0.232419 0.155417 0.000000
0.326032 0.183014 0.000000
0.403975 0.216312 0.000000
0.464669 0.258109 0.000000
0.515777 0.303040 0.000000
0.548910 0.351395 0.000000
0.575016 0.402513 0.000000
0.600467 0.452982 0.000000
0.622950 0.502452 0.000000
0.648605 0.548913 0.000000
0.674207 0.592963 0.000000
0.712876 0.631696 0.000000
0.756512 0.666144 0.000000
0.808351 0.693726 0.000000
0.866584 0.715107 0.000000
0.931372 0.727164 0.000000
1.000000 0.731984 0.000000
0.000000 0.160954 0.000000
0.108660 0.167467 0.000000
0.208869 0.181796 0.000000
0.294370 0.209851 0.000000
0.366785 0.242617 0.000000
0.424733 0.283811 0.000000
0.473022 0.328984 0.000000
0.502459 0.377054 0.000000
0.527788 0.426697 0.000000
0.551009 0.477468 0.000000
0.573295 0.527796 0.000000
0.597489 0.575014 0.000000
0.623077 0.620821 0.000000
0.665592 0.662743 0.000000
0.714083 0.701214 0.000000
0.773130 0.731564 0.000000
0.841422 0.755265 0.000000
0.917920 0.768302 0.000000
1.000000 0.773917 0.000000
0.000000 0.190926 0.000000
0.095694 0.197143 0.000000
0.183661 0.211188 0.000000
0.260008 0.237102 0.000000
0.326992 0.269044 0.000000
0.379654 0.308604 0.000000
0.424872 0.351921 0.000000
0.452990 0.399536 0.000000
0.477465 0.448992 0.000000
0.499996 0.500002 0.000000
0.522537 0.551007 0.000000
0.547012 0.600466 0.000000
0.575129 0.648077 0.000000
0.620346 0.691395 0.000000
0.673008 0.730957 0.000000
0.739993 0.762897 0.000000
0.816339 0.788815 0.000000
0.904296 0.802853 0.000000
1.000000 0.809063 0.000000
0.000000 0.226090 0.000000
0.082086 0.231700 0.000000
0.158578 0.244735 0.000000
0.226869 0.268436 0.000000
0.285917 0.298784 0.000000
0.334409 0.337258 0.000000
0.376922 0.379181 0.000000
0.402510 0.424981 0.000000
0.426700 0.472215 0.000000
0.448999 0.522531 0.000000
0.472209 0.573300 0.000000
0.497545 0.622950 0.000000
0.526972 0.671014 0.000000
0.575270 0.716189 0.000000
0.633210 0.757384 0.000000
0.705633 0.790147 0.000000
0.791137 0.818208 0.000000
0.891358 0.832540 0.000000
1.000000 0.839057 0.000000
0.000000 0.268019 0.000000
0.068623 0.272837 0.000000
0.133415 0.284892 0.000000
0.191651 0.306274 0.000000
0.243487 0.333858 0.000000
0.287123 0.368302 0.000000
0.325794 0.407037 0.000000
0.351395 0.451088 0.000000
0.377053 0.497541 0.000000
0.399531 0.547016 0.000000
0.424982 0.597488 0.000000
0.451087 0.648605 0.000000
0.484223 0.696962 0.000000
0.535333 0.741888 0.000000
0.596028 0.783690 0.000000
0.673963 0.816983 0.000000
0.767581 0.844586 0.000000
0.878232 0.858825 0.000000
1.000000 0.865899 0.000000
0.000000 0.318059 0.000000
0.056508 0.321956 0.000000
0.110078 0.333451 0.000000
0.159656 0.352574 0.000000
0.204373 0.377947 0.000000
0.242678 0.409021 0.000000
0.277422 0.443584 0.000000
0.303039 0.484225 0.000000
0.328983 0.526975 0.000000
0.351924 0.575125 0.000000
0.379181 0.623081 0.000000
0.407037 0.674205 0.000000
0.443580 0.722579 0.000000
0.495834 0.766397 0.000000
0.558041 0.807796 0.000000
0.642078 0.840923 0.000000
0.744053 0.868261 0.000000
0.865314 0.882475 0.000000
1.000000 0.888588 0.000000
0.000000 0.378729 0.000000
0.045695 0.382315 0.000000
0.089358 0.393313 0.000000
0.130362 0.410473 0.000000
0.168513 0.433729 0.000000
0.202536 0.462648 0.000000
0.233605 0.495827 0.000000
0.258110 0.535330 0.000000
0.283812 0.575269 0.000000
0.308604 0.620347 0.000000
0.337258 0.665591 0.000000
0.368302 0.712877 0.000000
0.409022 0.757323 0.000000
0.462648 0.797463 0.000000
0.527854 0.835538 0.000000
0.616177 0.865751 0.000000
0.724376 0.891062 0.000000
0.854593 0.904278 0.000000
1.000000 0.910886 0.000000
0.000000 0.453822 0.000000
0.035900 0.457184 0.000000
0.070633 0.467262 0.000000
0.103724 0.481992 0.000000
0.135485 0.502302 0.000000
0.164467 0.527845 0.000000
0.192201 0.558046 0.000000
0.216313 0.596030 0.000000
0.242614 0.633212 0.000000
0.269044 0.673007 0.000000
0.298784 0.714083 0.000000
0.333858 0.756513 0.000000
0.377948 0.795627 0.000000
0.433728 0.831486 0.000000
0.502300 0.864511 0.000000
0.594118 0.890707 0.000000
0.707953 0.913090 0.000000
0.845586 0.924783 0.000000
1.000000 0.930356 0.000000
0.000000 0.552274 0.000000
0.028185 0.554912 0.000000
0.055891 0.563702 0.000000
0.083017 0.575943 0.000000
0.109294 0.594120 0.000000
0.134248 0.616175 0.000000
0.159080 0.642086 0.000000
0.183014 0.673964 0.000000
0.209854 0.705632 0.000000
0.237102 0.739993 0.000000
0.268437 0.773131 0.000000
0.306273 0.808349 0.000000
0.352575 0.840342 0.000000
0.410474 0.869640 0.000000
0.481993 0.896275 0.000000
0.575943 0.916984 0.000000
0.694411 0.935164 0.000000
0.837973 0.944373 0.000000
1.000000 0.948539 0.000000
0.000000 0.677104 0.000000
0.021540 0.678962 0.000000
0.043390 0.685354 0.000000
0.064833 0.694411 0.000000
0.086909 0.707955 0.000000
0.108938 0.724371 0.000000
0.131732 0.744066 0.000000
0.155421 0.767582 0.000000
0.181794 0.791133 0.000000
0.211186 0.816339 0.000000
0.244733 0.841422 0.000000
0.284894 0.866585 0.000000
0.333448 0.889922 0.000000
0.393314 0.910641 0.000000
0.467260 0.929369 0.000000
0.563702 0.944107 0.000000
0.685352 0.956615 0.000000
0.833141 0.963301 0.000000
1.000000 0.966346 0.000000
0.000000 0.828023 0.000000
0.018325 0.828885 0.000000
0.036689 0.833143 0.000000
0.055631 0.837978 0.000000
0.075215 0.845585 0.000000
0.095721 0.854594 0.000000
0.117530 0.865288 0.000000
0.141172 0.878218 0.000000
0.167461 0.891342 0.000000
0.197144 0.904301 0.000000
0.231702 0.917915 0.000000
0.272836 0.931376 0.000000
0.321958 0.943496 0.000000
0.382315 0.954302 0.000000
0.457185 0.964104 0.000000
0.554913 0.971811 0.000000
0.678962 0.978464 0.000000
0.828885 0.981677 0.000000
1.000000 0.983277 0.000000
0.000000 1.000000 0.000000
0.016709 1.000000 0.000000
0.033627 1.000000 0.000000
0.051482 1.000000 0.000000
0.069678 1.000000 0.000000
0.089097 1.000000 0.000000
0.111415 1.000000 0.000000
0.134112 1.000000 0.000000
0.160941 1.000000 0.000000
0.190941 1.000000 0.000000
0.226086 1.000000 0.000000
0.268018 1.000000 0.000000
0.318055 1.000000 0.000000
0.378733 1.000000 0.000000
0.453817 1.000000 0.000000
0.552277 1.000000 0.000000
0.677094 1.000000 0.000000
0.828055 1.000000 0.000000
1.000000 1.000000 0.000000
0.000000 0.000000 0.055017
0.171989 0.000000 0.055000
0.322885 0.000000 0.054998
0.447731 0.000000 0.055002
0.546177 0.000000 0.055000
[...]
POINT_DATA 2527 
VECTORS pos float 
0.000000 0.000000 0.000000
0.172001 0.000000 0.000000
0.322883 0.000000 0.000000
0.447732 0.000000 0.000000
0.546177 0.000000 0.000000
0.621272 0.000000 0.000000
0.681939 0.000000 0.000000
0.731982 0.000000 0.000000
0.773910 0.000000 0.000000
0.809069 0.000000 0.000000
0.839045 0.000000 0.000000
0.865926 0.000000 0.000000
0.888732 0.000000 0.000000
0.910804 0.000000 0.000000
0.930498 0.000000 0.000000
0.948552 0.000000 0.000000
0.966242 0.000000 0.000000
0.983229 0.000000 0.000000
1.000000 0.000000 0.000000
0.000000 0.016761 0.000000
0.171084 0.018309 0.000000
0.321049 0.021537 0.000000
0.445083 0.028189 0.000000
0.542817 0.035897 0.000000
0.617684 0.045696 0.000000
0.678044 0.056506 0.000000
0.727164 0.068626 0.000000
0.768301 0.082081 0.000000
0.802858 0.095702 0.000000
0.832536 0.108651 0.000000
0.858834 0.121770 0.000000
0.882478 0.134648 0.000000
0.904273 0.145403 0.000000
0.924783 0.154369 0.000000
0.944382 0.162011 0.000000
0.963285 0.166827 0.000000
0.981684 0.171088 0.000000
1.000000 0.171946 0.000000
0.000000 0.033740 0.000000
0.166824 0.036722 0.000000
0.314659 0.043380 0.000000
0.436293 0.055902 0.000000
0.532743 0.070623 0.000000
0.606680 0.089366 0.000000
0.666553 0.110069 0.000000
0.715107 0.133417 0.000000
0.755265 0.158577 0.000000
0.788811 0.183661 0.000000
0.818203 0.208871 0.000000
0.844585 0.232410 0.000000
0.868253 0.255951 0.000000
0.891074 0.275633 0.000000
0.913080 0.292061 0.000000
0.935166 0.305599 0.000000
0.956614 0.314657 0.000000
0.978471 0.321048 0.000000
1.000000 0.322900 0.000000
0.000000 0.051437 0.000000
0.162007 0.055620 0.000000
0.305600 0.064832 0.000000
0.424051 0.083014 0.000000
0.518011 0.103729 0.000000
0.589527 0.130358 0.000000
0.647428 0.159661 0.000000
0.693726 0.191650 0.000000
0.731564 0.226869 0.000000
0.762899 0.260011 0.000000
0.790150 0.294367 0.000000
0.816985 0.326028 0.000000
0.840927 0.357909 0.000000
0.865744 0.383829 0.000000
0.890714 0.405876 0.000000
0.916985 0.424053 0.000000
0.944102 0.436293 0.000000
0.971806 0.445084 0.000000
1.000000 0.447724 0.000000
0.000000 0.069495 0.000000
0.154397 0.075211 0.000000
0.292053 0.086923 0.000000
0.405881 0.109286 0.000000
0.497696 0.135492 0.000000
0.566272 0.168512 0.000000
0.622051 0.204374 0.000000
0.666142 0.243487 0.000000
0.701216 0.285918 0.000000
0.730956 0.326990 0.000000
0.757381 0.366785 0.000000
0.783688 0.403977 0.000000
0.807795 0.441959 0.000000
0.835536 0.472154 0.000000
0.864509 0.497704 0.000000
0.896270 0.518014 0.000000
0.929374 0.532741 0.000000
0.964106 0.542816 0.000000
1.000000 0.546182 0.000000
0.000000 0.089200 0.000000
0.145412 0.095720 0.000000
0.275624 0.108930 0.000000
0.383825 0.134253 0.000000
0.472150 0.164466 0.000000
0.537353 0.202537 0.000000
0.590977 0.242675 0.000000
0.631698 0.287123 0.000000
0.662741 0.334408 0.000000
0.691396 0.379655 0.000000
0.716190 0.424733 0.000000
0.741892 0.464668 0.000000
0.766398 0.504168 0.000000
0.797461 0.537347 0.000000
0.831488 0.566267 0.000000
0.869643 0.589524 0.000000
0.910637 0.606682 0.000000
0.954300 0.617684 0.000000
1.000000 0.621267 0.000000
0.000000 0.111317 0.000000
0.134675 0.117532 0.000000
0.255955 0.131743 0.000000
0.357915 0.159076 0.000000
0.441953 0.192203 0.000000
0.504165 0.233601 0.000000
0.556420 0.277423 0.000000
0.592963 0.325794 0.000000
0.620821 0.376920 0.000000
0.648078 0.424874 0.000000
0.671013 0.473027 0.000000
0.696961 0.515777 0.000000
0.722576 0.556418 0.000000
0.757328 0.590982 0.000000
0.795628 0.622050 0.000000
0.840337 0.647428 0.000000
0.889928 0.666553 0.000000
0.943499 0.678043 0.000000
1.000000 0.681944 0.000000
0.000000 0.134079 0.000000
0.121783 0.141162 0.000000
0.232419 0.155417 0.000000
0.326032 0.183014 0.000000
0.403975 0.216312 0.000000
0.464669 0.258109 0.000000
0.515777 0.303040 0.000000
0.548910 0.351395 0.000000
0.575016 0.402513 0.000000
0.600467 0.452982 0.000000
0.622950 0.502452 0.000000
0.648605 0.548913 0.000000
0.674207 0.592963 0.000000
0.712876 0.631696 0.000000
0.756512 0.666144 0.000000
0.808351 0.693726 0.000000
0.866584 0.715107 0.000000
0.931372 0.727164 0.000000
1.000000 0.731984 0.000000
0.000000 0.160954 0.000000
0.108660 0.167467 0.000000
0.208869 0.181796 0.000000
0.294370 0.209851 0.000000
0.366785 0.242617 0.000000
0.424733 0.283811 0.000000
0.473022 0.328984 0.000000
0.502459 0.377054 0.000000
0.527788 0.426697 0.000000
0.551009 0.477468 0.000000
0.573295 0.527796 0.000000
0.597489 0.575014 0.000000
0.623077 0.620821 0.000000
0.665592 0.662743 0.000000
0.714083 0.701214 0.000000
0.773130 0.731564 0.000000
0.841422 0.755265 0.000000
0.917920 0.768302 0.000000
1.000000 0.773917 0.000000
0.000000 0.190926 0.000000
0.095694 0.197143 0.000000
0.183661 0.211188 0.000000
0.260008 0.237102 0.000000
0.326992 0.269044 0.000000
0.379654 0.308604 0.000000
0.424872 0.351921 0.000000
0.452990 0.399536 0.000000
0.477465 0.448992 0.000000
0.499996 0.500002 0.000000
0.522537 0.551007 0.000000
0.547012 0.600466 0.000000
0.575129 0.648077 0.000000
0.620346 0.691395 0.000000
0.673008 0.730957 0.000000
0.739993 0.762897 0.000000
0.816339 0.788815 0.000000
0.904296 0.802853 0.000000
1.000000 0.809063 0.000000
0.000000 0.226090 0.000000
0.082086 0.231700 0.000000
0.158578 0.244735 0.000000
0.226869 0.268436 0.000000
0.285917 0.298784 0.000000
0.334409 0.337258 0.000000
0.376922 0.379181 0.000000
0.402510 0.424981 0.000000
0.426700 0.472215 0.000000
0.448999 0.522531 0.000000
0.472209 0.573300 0.000000
0.497545 0.622950 0.000000
0.526972 0.671014 0.000000
0.575270 0.716189 0.000000
0.633210 0.757384 0.000000
0.705633 0.790147 0.000000
0.791137 0.818208 0.000000
0.891358 0.832540 0.000000
1.000000 0.839057 0.000000
0.000000 0.268019 0.000000
0.068623 0.272837 0.000000
0.133415 0.284892 0.000000
0.191651 0.306274 0.000000
0.243487 0.333858 0.000000
0.287123 0.368302 0.000000
0.325794 0.407037 0.000000
0.351395 0.451088 0.000000
0.377053 0.497541 0.000000
0.399531 0.547016 0.000000
0.424982 0.597488 0.000000
0.451087 0.648605 0.000000
0.484223 0.696962 0.000000
0.535333 0.741888 0.000000
0.596028 0.783690 0.000000
0.673963 0.816983 0.000000
0.767581 0.844586 0.000000
0.878232 0.858825 0.000000
1.000000 0.865899 0.000000
0.000000 0.318059 0.000000
0.056508 0.321956 0.000000
0.110078 0.333451 0.000000
0.159656 0.352574 0.000000
0.204373 0.377947 0.000000
0.242678 0.409021 0.000000
0.277422 0.443584 0.000000
0.303039 0.484225 0.000000
0.328983 0.526975 0.000000
0.351924 0.575125 0.000000
0.379181 0.623081 0.000000
0.407037 0.674205 0.000000
0.443580 0.722579 0.000000
0.495834 0.766397 0.000000
0.558041 0.807796 0.000000
0.642078 0.840923 0.000000
0.744053 0.868261 0.000000
0.865314 0.882475 0.000000
1.000000 0.888588 0.000000
0.000000 0.378729 0.000000
0.045695 0.382315 0.000000
0.089358 0.393313 0.000000
0.130362 0.410473 0.000000
0.168513 0.433729 0.000000
0.202536 0.462648 0.000000
0.233605 0.495827 0.000000
0.258110 0.535330 0.000000
0.283812 0.575269 0.000000
0.308604 0.620347 0.000000
0.337258 0.665591 0.000000
0.368302 0.712877 0.000000
0.409022 0.757323 0.000000
0.462648 0.797463 0.000000
0.527854 0.835538 0.000000
0.616177 0.865751 0.000000
0.724376 0.891062 0.000000
0.854593 0.904278 0.000000
1.000000 0.910886 0.000000
0.000000 0.453822 0.000000
0.035900 0.457184 0.000000
0.070633 0.467262 0.000000
0.103724 0.481992 0.000000
0.135485 0.502302 0.000000
0.164467 0.527845 0.000000
0.192201 0.558046 0.000000
0.216313 0.596030 0.000000
0.242614 0.633212 0.000000
0.269044 0.673007 0.000000
0.298784 0.714083 0.000000
0.333858 0.756513 0.000000
0.377948 0.795627 0.000000
0.433728 0.831486 0.000000
0.502300 0.864511 0.000000
0.594118 0.890707 0.000000
0.707953 0.913090 0.000000
0.845586 0.924783 0.000000
1.000000 0.930356 0.000000
0.000000 0.552274 0.000000
0.028185 0.554912 0.000000
0.055891 0.563702 0.000000
0.083017 0.575943 0.000000
0.109294 0.594120 0.000000
0.134248 0.616175 0.000000
0.159080 0.642086 0.000000
0.183014 0.673964 0.000000
0.209854 0.705632 0.000000
0.237102 0.739993 0.000000
0.268437 0.773131 0.000000
0.306273 0.808349 0.000000
0.352575 0.840342 0.000000
0.410474 0.869640 0.000000
0.481993 0.896275 0.000000
0.575943 0.916984 0.000000
0.694411 0.935164 0.000000
0.837973 0.944373 0.000000
1.000000 0.948539 0.000000
0.000000 0.677104 0.000000
0.021540 0.678962 0.000000
0.043390 0.685354 0.000000
0.064833 0.694411 0.000000
0.086909 0.707955 0.000000
0.108938 0.724371 0.000000
0.131732 0.744066 0.000000
0.155421 0.767582 0.000000
0.181794 0.791133 0.000000
0.211186 0.816339 0.000000
0.244733 0.841422 0.000000
0.284894 0.866585 0.000000
0.333448 0.889922 0.000000
0.393314 0.910641 0.000000
0.467260 0.929369 0.000000
0.563702 0.944107 0.000000
0.685352 0.956615 0.000000
0.833141 0.963301 0.000000
1.000000 0.966346 0.000000
0.000000 0.828023 0.000000
0.018325 0.828885 0.000000
0.036689 0.833143 0.000000
0.055631 0.837978 0.000000
0.075215 0.845585 0.000000
0.095721 0.854594 0.000000
0.117530 0.865288 0.000000
0.141172 0.878218 0.000000
0.167461 0.891342 0.000000
0.197144 0.904301 0.000000
0.231702 0.917915 0.000000
0.272836 0.931376 0.000000
0.321958 0.943496 0.000000
0.382315 0.954302 0.000000
0.457185 0.964104 0.000000
0.554913 0.971811 0.000000
0.678962 0.978464 0.000000
0.828885 0.981677 0.000000
1.000000 0.983277 0.000000
0.000000 1.000000 0.000000
0.016709 1.000000 0.000000
0.033627 1.000000 0.000000
0.051482 1.000000 0.000000
0.069678 1.000000 0.000000
0.089097 1.000000 0.000000
0.111415 1.000000 0.000000
0.134112 1.000000 0.000000
0.160941 1.000000 0.000000
0.190941 1.000000 0.000000
0.226086 1.000000 0.000000
0.268018 1.000000 0.000000
0.318055 1.000000 0.000000
0.378733 1.000000 0.000000
0.453817 1.000000 0.000000
0.552277 1.000000 0.000000
0.677094 1.000000 0.000000
0.828055 1.000000 0.000000
1.000000 1.000000 0.000000
0.000000 0.000000 0.055017
0.171989 0.000000 0.055000
0.322885 0.000000 0.054998
0.447731 0.000000 0.055002
0.546177 0.000000 0.055000
0.621271 0.000000 0.055000
0.681940 0.000000 0.055004
0.731982 0.000000 0.054996
0.773912 0.000000 0.055005
0.809068 0.000000 0.054996
0.839045 0.000000 0.054998
0.865900 0.000000 0.054988
0.888586 0.000000 0.055001
0.910803 0.000000 0.055027
0.930476 0.000000 0.055014
0.948518 0.000000 0.054974
0.966427 0.000000 0.054954
0.983320 0.000000 0.055013
1.000000 0.000000 0.055040
0.000000 0.016675 0.055001
0.171080 0.018313 0.055001
0.321050 0.021531 0.055001
0.445083 0.028192 0.055000
0.542816 0.035894 0.055000
0.617684 0.045700 0.055000
0.678042 0.056502 0.055001
0.727165 0.068625 0.055000
0.768298 0.082082 0.055000
0.802860 0.095702 0.054998
0.832536 0.108648 0.055004
0.858831 0.121769 0.055003
0.882464 0.134718 0.054998
0.904271 0.145439 0.054998
0.924812 0.154422 0.055003
0.944363 0.162009 0.055002
0.963287 0.166845 0.054997
0.981690 0.171082 0.055001
1.000000 0.172020 0.055002
0.000000 0.033584 0.054985
0.166845 0.036711 0.055000
0.314649 0.043379 0.055001
0.436295 0.055901 0.054998
0.532742 0.070622 0.055001
0.606681 0.089365 0.054999
0.666554 0.110069 0.055002
0.715106 0.133417 0.054999
0.755268 0.158575 0.055000
0.788811 0.183664 0.055001
0.818207 0.208879 0.055001
0.844580 0.232396 0.054998
0.868262 0.255946 0.054998
0.891065 0.275612 0.055000
0.913072 0.292042 0.054999
0.935177 0.305591 0.055000
0.956623 0.314649 0.055002
0.978463 0.321048 0.055000
1.000000 0.322876 0.054994
0.000000 0.051455 0.054959
0.162014 0.055637 0.055001
0.305590 0.064823 0.055001
0.424055 0.083017 0.054999
0.518012 0.103729 0.055000
0.589527 0.130359 0.054999
0.647426 0.159660 0.055001
0.693726 0.191650 0.055000
0.731564 0.226869 0.055000
0.762898 0.260010 0.054999
0.790147 0.294354 0.055000
0.816988 0.326033 0.055000
0.840913 0.357922 0.054999
0.865753 0.383829 0.055000
0.890713 0.405885 0.055001
0.916983 0.424053 0.054999
0.944099 0.436296 0.054998
0.971812 0.445083 0.055000
1.000000 0.447736 0.055004
0.000000 0.069526 0.054987
0.154414 0.075186 0.055001
0.292043 0.086933 0.055001
0.405884 0.109283 0.054999
0.497697 0.135492 0.055000
0.566274 0.168511 0.055001
0.622049 0.204376 0.054999
0.666142 0.243486 0.055000
0.701217 0.285920 0.055000
0.730955 0.326988 0.055000
0.757386 0.366800 0.055001
0.783682 0.403968 0.055000
0.807807 0.441962 0.055001
0.835533 0.472139 0.055002
0.864510 0.497696 0.055000
0.896272 0.518010 0.055001
0.929378 0.532742 0.055001
0.964102 0.542815 0.055000
1.000000 0.546175 0.054997
0.000000 0.089206 0.055034
0.145444 0.095730 0.055001
0.275614 0.108933 0.055000
0.383833 0.134250 0.055001
0.472138 0.164465 0.055001
0.537356 0.202537 0.054999
0.590975 0.242676 0.055000
0.631697 0.287123 0.055000
0.662742 0.334409 0.055000
0.691396 0.379655 0.055000
0.716189 0.424728 0.054999
0.741891 0.464667 0.055000
0.766398 0.504172 0.055000
0.797464 0.537357 0.055000
0.831488 0.566275 0.055001
0.869641 0.589528 0.054999
0.910634 0.606683 0.054998
0.954302 0.617684 0.055001
1.000000 0.621273 0.055003
0.000000 0.111412 0.055002
0.134704 0.117536 0.055002
0.255934 0.131738 0.055001
0.357925 0.159086 0.055000
0.441963 0.192194 0.055002
0.504174 0.233604 0.054999
0.556415 0.277420 0.055001
0.592962 0.325795 0.055000
0.620820 0.376921 0.055000
0.648078 0.424873 0.055000
0.671016 0.473030 0.055000
0.696961 0.515777 0.055000
0.722577 0.556414 0.055001
0.757323 0.590975 0.054999
0.795625 0.622048 0.054998
0.840340 0.647428 0.055001
0.889932 0.666551 0.055002
0.943497 0.678044 0.054999
1.000000 0.681938 0.054994
0.000000 0.134089 0.054986
0.121767 0.141170 0.054999
0.232402 0.155419 0.055000
0.326032 0.183011 0.055000
0.403967 0.216319 0.055000
0.464667 0.258108 0.055000
0.515777 0.303041 0.055000
0.548913 0.351393 0.055000
0.575017 0.402511 0.055000
0.600468 0.452982 0.055000
0.622951 0.502454 0.055000
0.648605 0.548913 0.055000
0.674207 0.592964 0.055000
0.712877 0.631696 0.055000
0.756513 0.666143 0.055001
0.808349 0.693725 0.055000
0.866583 0.715108 0.054999
0.931372 0.727164 0.055001
1.000000 0.731985 0.055004
0.000000 0.160958 0.054995
0.108645 0.167463 0.054998
0.208873 0.181794 0.055001
0.294361 0.209853 0.054998
0.366795 0.242614 0.055002
0.424731 0.283811 0.054999
0.473026 0.328985 0.055001
0.502456 0.377050 0.055000
0.527789 0.426698 0.055000
0.551013 0.477464 0.055000
0.573304 0.527792 0.055000
0.597490 0.575016 0.055000
0.623078 0.620819 0.055000
0.665592 0.662743 0.055000
0.714082 0.701214 0.055000
0.773131 0.731566 0.055000
0.841424 0.755265 0.055001
0.917921 0.768302 0.054999
1.000000 0.773913 0.054995
0.000000 0.190930 0.054998
0.095703 0.197140 0.055001
0.183663 0.211189 0.055001
0.260010 0.237101 0.055000
0.326988 0.269046 0.055000
0.379655 0.308604 0.055000
0.424871 0.351922 0.055000
0.452987 0.399534 0.055000
0.477463 0.448986 0.055000
0.499999 0.499998 0.055000
0.522535 0.551014 0.055000
0.547015 0.600469 0.055000
0.575128 0.648077 0.055000
0.620345 0.691395 0.055000
0.673009 0.730957 0.055000
0.739991 0.762896 0.055000
0.816336 0.788814 0.055000
0.904294 0.802856 0.055001
1.000000 0.809071 0.054998
0.000000 0.226090 0.055004
0.082080 0.231701 0.055000
0.158576 0.244734 0.055000
0.226868 0.268437 0.055000
0.285920 0.298782 0.055000
0.334409 0.337258 0.055000
0.376921 0.379180 0.055000
0.402512 0.424982 0.055000
0.426696 0.472209 0.055000
0.448990 0.522537 0.055000
0.472210 0.573306 0.055000
0.497544 0.622951 0.055000
0.526971 0.671014 0.055000
0.575273 0.716189 0.055000
0.633205 0.757383 0.055000
0.705644 0.790149 0.055000
0.791128 0.818206 0.054999
0.891356 0.832542 0.054998
1.000000 0.839062 0.055004
0.000000 0.268017 0.054997
0.068625 0.272835 0.054999
0.133417 0.284891 0.055000
0.191652 0.306273 0.055000
0.243485 0.333860 0.055000
0.287122 0.368303 0.055000
0.325794 0.407038 0.055000
0.351394 0.451086 0.055000
0.377049 0.497545 0.055000
0.399530 0.547017 0.055000
0.424985 0.597487 0.055000
0.451087 0.648606 0.055000
0.484224 0.696962 0.054999
0.535332 0.741890 0.055001
0.596024 0.783690 0.054999
0.673966 0.816983 0.055001
0.767599 0.844583 0.054998
0.878239 0.858834 0.055000
1.000000 0.865927 0.055015
0.000000 0.318065 0.055003
0.056509 0.321955 0.055002
0.110073 0.333449 0.055000
0.159652 0.352572 0.055000
0.204373 0.377946 0.055001
0.242678 0.409019 0.055001
0.277428 0.443581 0.054999
0.303037 0.484225 0.055000
0.328985 0.526970 0.055000
0.351923 0.575127 0.055000
0.379181 0.623080 0.055000
0.407036 0.674206 0.055000
0.443582 0.722573 0.054998
0.495834 0.766403 0.055001
0.558042 0.807796 0.054999
0.642098 0.840926 0.055003
0.744043 0.868262 0.055000
0.865325 0.882462 0.055000
1.000000 0.888643 0.055000
0.000000 0.378723 0.054999
0.045693 0.382319 0.054998
0.089361 0.393317 0.055000
0.130365 0.410475 0.055000
0.168515 0.433727 0.055000
0.202536 0.462648 0.054999
0.233597 0.495834 0.055001
0.258111 0.535331 0.055001
0.283811 0.575273 0.055000
0.308605 0.620345 0.055000
0.337257 0.665592 0.055000
0.368304 0.712877 0.055000
0.409018 0.757323 0.055000
0.462650 0.797464 0.054999
0.527840 0.835528 0.055001
0.616181 0.865751 0.054998
0.724361 0.891063 0.055003
0.854612 0.904280 0.054997
1.000000 0.910762 0.054972
0.000000 0.453830 0.055002
0.035906 0.457177 0.055001
0.070624 0.467259 0.055001
0.103723 0.481987 0.054998
0.135483 0.502302 0.055000
0.164471 0.527842 0.055000
0.192204 0.558043 0.054999
0.216311 0.596026 0.055000
0.242616 0.633205 0.055000
0.269042 0.673009 0.055000
0.298786 0.714082 0.055000
0.333857 0.756513 0.055000
0.377949 0.795626 0.055000
0.433728 0.831487 0.055000
0.502303 0.864513 0.054999
0.594121 0.890711 0.055000
0.707949 0.913084 0.054999
0.845603 0.924793 0.055001
1.000000 0.930462 0.055014
0.000000 0.552264 0.054997
0.028180 0.554920 0.054998
0.055897 0.563707 0.054999
0.083020 0.575950 0.055002
0.109293 0.594122 0.055001
0.134249 0.616185 0.054999
0.159075 0.642097 0.055001
0.183016 0.673963 0.055000
0.209852 0.705642 0.054999
0.237104 0.739992 0.055001
0.268435 0.773131 0.055000
0.306274 0.808348 0.055000
0.352572 0.840347 0.055000
0.410475 0.869636 0.054999
0.481988 0.896278 0.055000
0.575948 0.916979 0.055001
0.694400 0.935174 0.054999
0.837999 0.944370 0.055004
1.000000 0.948550 0.055035
0.000000 0.677122 0.055002
0.021555 0.678947 0.055002
0.043374 0.685339 0.055002
0.064828 0.694396 0.054998
0.086909 0.707948 0.054999
0.108936 0.724362 0.055001
0.131737 0.744039 0.055003
0.155420 0.767595 0.055001
0.181795 0.791129 0.055000
0.211185 0.816338 0.054999
0.244736 0.841423 0.055000
0.284891 0.866584 0.055000
0.333450 0.889926 0.055001
0.393316 0.910638 0.055000
0.467261 0.929377 0.055001
0.563705 0.944103 0.054999
0.685344 0.956626 0.055002
0.833168 0.963279 0.054997
1.000000 0.966439 0.054997
0.000000 0.827971 0.055003
0.018293 0.828925 0.054998
0.036723 0.833180 0.054997
0.055625 0.838014 0.055004
0.075210 0.845600 0.055002
0.095720 0.854617 0.054999
0.117537 0.865300 0.055001
0.141165 0.878236 0.054997
0.167458 0.891354 0.054994
0.197144 0.904296 0.055003
0.231699 0.917918 0.055000
0.272837 0.931374 0.055000
0.321954 0.943494 0.055001
0.382320 0.954305 0.054998
0.457177 0.964097 0.055001
0.554920 0.971816 0.054999
0.678946 0.978450 0.055001
0.828925 0.981705 0.054999
1.000000 0.983365 0.054982
0.000000 1.000000 0.054953
0.016642 1.000000 0.054973
0.033584 1.000000 0.055008
0.051461 1.000000 0.055040
0.069532 1.000000 0.055019
0.089238 1.000000 0.054969
0.111337 1.000000 0.054992
0.134069 1.000000 0.055007
0.160939 1.000000 0.054995
0.190930 1.000000 0.055004
0.226091 1.000000 0.054996
0.268014 1.000000 0.055003
0.318063 1.000000 0.054995
0.378727 1.000000 0.055002
0.453827 1.000000 0.054999
0.552268 1.000000 0.055000
0.677115 1.000000 0.054999
0.827995 1.000000 0.055002
1.000000 1.000000 0.054991
0.000000 0.000000 0.110042
0.171994 0.000000 0.110005
0.322890 0.000000 0.109995
0.447729 0.000000 0.110004
0.546174 0.000000 0.109997
0.621272 0.000000 0.110000
0.681940 0.000000 0.110001
0.731984 0.000000 0.109999
0.773912 0.000000 0.110001
0.809067 0.000000 0.109999
0.839066 0.000000 0.110009
0.865929 0.000000 0.110012
0.888669 0.000000 0.110000
0.910766 0.000000 0.109984
0.930486 0.000000 0.109957
0.948526 0.000000 0.109984
0.966414 0.000000 0.110028