# vtk DataFile Version 2.0
Mesh for Fierro
ASCII 
DATASET UNSTRUCTURED_GRID

POINTS 2527 float
0.000000 0.000000 0.000000
0.102421 0.000000 0.000000
0.200900 0.000000 0.000000
0.294693 0.000000 0.000000
0.380609 0.000000 0.000000
0.457201 0.000000 0.000000
0.525738 0.000000 0.000000
0.586727 0.000000 0.000000
0.640820 0.000000 0.000000
0.688781 0.000000 0.000000
0.732594 0.000000 0.000000
0.772450 0.000000 0.000000
0.809375 0.000000 0.000000
0.844911 0.000000 0.000000
0.878324 0.000000 0.000000
0.909849 0.000000 0.000000
0.940144 0.000000 0.000000
0.970024 0.000000 0.000000
1.000000 0.000000 0.000000
0.000000 0.029975 0.000000
0.101917 0.030630 0.000000
0.199925 0.032231 0.000000
0.293225 0.034827 0.000000
0.378783 0.038087 0.000000
0.454962 0.042524 0.000000
0.523588 0.047345 0.000000
0.584082 0.053273 0.000000
0.638096 0.059614 0.000000
0.685989 0.065731 0.000000
0.729513 0.071980 0.000000
0.769629 0.078161 0.000000
0.806583 0.084063 0.000000
0.842151 0.089295 0.000000
0.875745 0.093840 0.000000
0.907845 0.097517 0.000000
0.938783 0.100177 0.000000
0.969370 0.101917 0.000000
1.000000 0.102421 0.000000
0.000000 0.059856 0.000000
0.100177 0.061217 0.000000
0.196539 0.064280 0.000000
0.288240 0.069674 0.000000
0.372307 0.076323 0.000000
0.447932 0.085140 0.000000
0.516022 0.094657 0.000000
0.575908 0.106139 0.000000
0.629278 0.118171 0.000000
0.677115 0.130054 0.000000
0.720789 0.142288 0.000000
0.761248 0.153860 0.000000
0.798889 0.165632 0.000000
0.835583 0.175774 0.000000
0.870055 0.184294 0.000000
0.903672 0.191417 0.000000
0.935720 0.196539 0.000000
0.967768 0.199925 0.000000
1.000000 0.200900 0.000000
0.000000 0.090151 0.000000
0.097517 0.092155 0.000000
0.191417 0.096328 0.000000
0.280907 0.104315 0.000000
0.363018 0.114254 0.000000
0.437063 0.127187 0.000000
0.504164 0.141394 0.000000
0.562608 0.157850 0.000000
0.615389 0.175395 0.000000
0.662559 0.192461 0.000000
0.706085 0.210069 0.000000
0.747345 0.226773 0.000000
0.785707 0.243699 0.000000
0.823662 0.258204 0.000000
0.859722 0.270561 0.000000
0.895685 0.280907 0.000000
0.930326 0.288240 0.000000
0.965173 0.293225 0.000000
1.000000 0.294693 0.000000
0.000000 0.121676 0.000000
0.093840 0.124255 0.000000
0.184294 0.129945 0.000000
0.270561 0.140278 0.000000
0.350472 0.153073 0.000000
0.422346 0.169218 0.000000
0.487684 0.187491 0.000000
0.544583 0.208422 0.000000
0.596356 0.230360 0.000000
0.642915 0.252651 0.000000
0.686817 0.274224 0.000000
0.728755 0.295281 0.000000
0.768587 0.316938 0.000000
0.808253 0.335192 0.000000
0.846927 0.350472 0.000000
0.885746 0.363018 0.000000
0.923677 0.372307 0.000000
0.961913 0.378783 0.000000
1.000000 0.380609 0.000000
0.000000 0.155089 0.000000
0.089295 0.157849 0.000000
0.175774 0.164417 0.000000
0.258204 0.176338 0.000000
0.335192 0.191747 0.000000
0.404419 0.211180 0.000000
0.468140 0.232510 0.000000
0.523312 0.257241 0.000000
0.573516 0.283405 0.000000
0.619792 0.309042 0.000000
0.663596 0.335118 0.000000
0.705820 0.359309 0.000000
0.746762 0.383522 0.000000
0.788820 0.404419 0.000000
0.830782 0.422346 0.000000
0.872813 0.437063 0.000000
0.914860 0.447932 0.000000
0.957476 0.454962 0.000000
1.000000 0.457201 0.000000
0.000000 0.190625 0.000000
0.084063 0.193417 0.000000
0.165632 0.201111 0.000000
0.243699 0.214293 0.000000
0.316938 0.231413 0.000000
0.383522 0.253238 0.000000
0.445724 0.277466 0.000000
0.498495 0.305091 0.000000
0.547168 0.334741 0.000000
0.593125 0.362883 0.000000
0.636827 0.392253 0.000000
0.680218 0.419814 0.000000
0.722534 0.445724 0.000000
0.767490 0.468140 0.000000
0.812509 0.487684 0.000000
0.858606 0.504164 0.000000
0.905343 0.516022 0.000000
0.952655 0.523588 0.000000
1.000000 0.525738 0.000000
0.000000 0.227550 0.000000
0.078161 0.230371 0.000000
0.153860 0.238752 0.000000
0.226773 0.252655 0.000000
0.295281 0.271245 0.000000
0.359309 0.294180 0.000000
0.419814 0.319782 0.000000
0.470190 0.348827 0.000000
0.517567 0.379472 0.000000
0.563398 0.409875 0.000000
0.607005 0.440249 0.000000
0.651173 0.470190 0.000000
0.694909 0.498495 0.000000
0.742759 0.523312 0.000000
0.791578 0.544583 0.000000
0.842150 0.562608 0.000000
0.893861 0.575908 0.000000
0.946726 0.584082 0.000000
1.000000 0.586727 0.000000
0.000000 0.267406 0.000000
0.071980 0.270487 0.000000
0.142288 0.279211 0.000000
0.210069 0.293915 0.000000
0.274224 0.313183 0.000000
0.335118 0.336404 0.000000
0.392253 0.363173 0.000000
0.440249 0.392995 0.000000
0.486891 0.423711 0.000000
0.531818 0.455198 0.000000
0.576289 0.486891 0.000000
0.620528 0.517567 0.000000
0.665259 0.547168 0.000000
0.716595 0.573516 0.000000
0.769640 0.596356 0.000000
0.824605 0.615389 0.000000
0.881829 0.629278 0.000000
0.940385 0.638096 0.000000
1.000000 0.640820 0.000000
0.000000 0.311219 0.000000
0.065731 0.314011 0.000000
0.130054 0.322885 0.000000
0.192461 0.337441 0.000000
0.252651 0.357085 0.000000
0.309042 0.380208 0.000000
0.362883 0.406875 0.000000
0.409875 0.436602 0.000000
0.455198 0.468182 0.000000
0.500000 0.500000 0.000000
0.544802 0.531818 0.000000
0.590125 0.563398 0.000000
0.637117 0.593125 0.000000
0.690958 0.619792 0.000000
0.747349 0.642915 0.000000
0.807539 0.662559 0.000000
0.869946 0.677115 0.000000
0.934269 0.685989 0.000000
1.000000 0.688781 0.000000
0.000000 0.359180 0.000000
0.059614 0.361904 0.000000
0.118171 0.370722 0.000000
0.175395 0.384611 0.000000
0.230360 0.403644 0.000000
0.283405 0.426484 0.000000
0.334741 0.452832 0.000000
0.379472 0.482433 0.000000
0.423711 0.513109 0.000000
0.468182 0.544802 0.000000
0.513109 0.576289 0.000000
0.559751 0.607005 0.000000
0.607747 0.636827 0.000000
0.664882 0.663596 0.000000
0.725776 0.686817 0.000000
0.789931 0.706085 0.000000
0.857712 0.720789 0.000000
0.928019 0.729513 0.000000
1.000000 0.732594 0.000000
0.000000 0.413273 0.000000
0.053273 0.415918 0.000000
0.106139 0.424092 0.000000
0.157850 0.437392 0.000000
0.208422 0.455417 0.000000
0.257241 0.476688 0.000000
0.305091 0.501505 0.000000
0.348827 0.529810 0.000000
0.392995 0.559751 0.000000
0.436602 0.590125 0.000000
0.482433 0.620528 0.000000
0.529810 0.651173 0.000000
0.580186 0.680218 0.000000
0.640691 0.705820 0.000000
0.704719 0.728755 0.000000
0.773227 0.747345 0.000000
0.846140 0.761248 0.000000
0.921838 0.769629 0.000000
1.000000 0.772450 0.000000
0.000000 0.474262 0.000000
0.047345 0.476412 0.000000
0.094657 0.483978 0.000000
0.141394 0.495836 0.000000
0.187491 0.512316 0.000000
0.232510 0.531860 0.000000
0.277466 0.554276 0.000000
0.319782 0.580186 0.000000
0.363173 0.607747 0.000000
0.406875 0.637117 0.000000
0.452832 0.665259 0.000000
0.501505 0.694909 0.000000
0.554276 0.722534 0.000000
0.616478 0.746762 0.000000
0.683062 0.768587 0.000000
0.756301 0.785707 0.000000
0.834368 0.798889 0.000000
0.915936 0.806583 0.000000
1.000000 0.809375 0.000000
0.000000 0.542799 0.000000
0.042524 0.545038 0.000000
0.085140 0.552068 0.000000
0.127187 0.562937 0.000000
0.169218 0.577654 0.000000
0.211180 0.595581 0.000000
0.253238 0.616478 0.000000
0.294180 0.640691 0.000000
0.336404 0.664882 0.000000
0.380208 0.690958 0.000000
0.426484 0.716595 0.000000
0.476688 0.742759 0.000000
0.531860 0.767490 0.000000
0.595581 0.788820 0.000000
0.664808 0.808253 0.000000
0.741796 0.823662 0.000000
0.824226 0.835583 0.000000
0.910704 0.842151 0.000000
1.000000 0.844911 0.000000
0.000000 0.619391 0.000000
0.038087 0.621217 0.000000
0.076323 0.627693 0.000000
0.114254 0.636982 0.000000
0.153073 0.649528 0.000000
0.191747 0.664808 0.000000
0.231413 0.683062 0.000000
0.271245 0.704719 0.000000
0.313183 0.725776 0.000000
0.357085 0.747349 0.000000
0.403644 0.769640 0.000000
0.455417 0.791578 0.000000
0.512316 0.812509 0.000000
0.577654 0.830782 0.000000
0.649528 0.846927 0.000000
0.729439 0.859722 0.000000
0.815706 0.870055 0.000000
0.906159 0.875745 0.000000
1.000000 0.878324 0.000000
0.000000 0.705307 0.000000
0.034827 0.706775 0.000000
0.069674 0.711760 0.000000
0.104315 0.719093 0.000000
0.140278 0.729439 0.000000
0.176338 0.741796 0.000000
0.214293 0.756301 0.000000
0.252655 0.773227 0.000000
0.293915 0.789931 0.000000
0.337441 0.807539 0.000000
0.384611 0.824605 0.000000
0.437392 0.842150 0.000000
0.495836 0.858606 0.000000
0.562937 0.872813 0.000000
0.636982 0.885746 0.000000
0.719093 0.895685 0.000000
0.808583 0.903672 0.000000
0.902482 0.907845 0.000000
1.000000 0.909849 0.000000
0.000000 0.799100 0.000000
0.032231 0.800075 0.000000
0.064280 0.803461 0.000000
0.096328 0.808583 0.000000
0.129945 0.815706 0.000000
0.164417 0.824226 0.000000
0.201111 0.834368 0.000000
0.238752 0.846140 0.000000
0.279211 0.857712 0.000000
0.322885 0.869946 0.000000
0.370722 0.881829 0.000000
0.424092 0.893861 0.000000
0.483978 0.905343 0.000000
0.552068 0.914860 0.000000
0.627693 0.923677 0.000000
0.711760 0.930326 0.000000
0.803461 0.935720 0.000000
0.899823 0.938783 0.000000
1.000000 0.940144 0.000000
0.000000 0.897578 0.000000
0.030630 0.898083 0.000000
0.061217 0.899823 0.000000
0.092155 0.902482 0.000000
0.124255 0.906159 0.000000
0.157849 0.910704 0.000000
0.193417 0.915936 0.000000
0.230371 0.921838 0.000000
0.270487 0.928019 0.000000
0.314011 0.934269 0.000000
0.361904 0.940385 0.000000
0.415918 0.946726 0.000000
0.476412 0.952655 0.000000
0.545038 0.957476 0.000000
0.621217 0.961913 0.000000
0.706775 0.965173 0.000000
0.800075 0.967768 0.000000
0.898083 0.969370 0.000000
1.000000 0.970024 0.000000
0.000000 1.000000 0.000000
0.029975 1.000000 0.000000
0.059856 1.000000 0.000000
0.090151 1.000000 0.000000
0.121676 1.000000 0.000000
0.155089 1.000000 0.000000
0.190625 1.000000 0.000000
0.227550 1.000000 0.000000
0.267406 1.000000 0.000000
0.311219 1.000000 0.000000
0.359180 1.000000 0.000000
0.413273 1.000000 0.000000
0.474262 1.000000 0.000000
0.542799 1.000000 0.000000
0.619391 1.000000 0.000000
0.705307 1.000000 0.000000
0.799100 1.000000 0.000000
0.897578 1.000000 0.000000
1.000000 1.000000 0.000000
0.000000 0.000000 0.055000
0.102421 0.000000 0.055000
0.200900 0.000000 0.055000
0.294693 0.000000 0.055000
0.380609 0.000000 0.055000
[...]
POINT_DATA 2527 
VECTORS pos float 
0.000000 0.000000 0.000000
0.102421 0.000000 0.000000
0.200900 0.000000 0.000000
0.294693 0.000000 0.000000
0.380609 0.000000 0.000000
0.457201 0.000000 0.000000
0.525738 0.000000 0.000000
0.586727 0.000000 0.000000
0.640820 0.000000 0.000000
0.688781 0.000000 0.000000
0.732594 0.000000 0.000000
0.772450 0.000000 0.000000
0.809375 0.000000 0.000000
0.844911 0.000000 0.000000
0.878324 0.000000 0.000000
0.909849 0.000000 0.000000
0.940144 0.000000 0.000000
0.970024 0.000000 0.000000
1.000000 0.000000 0.000000
0.000000 0.029975 0.000000
0.101917 0.030630 0.000000
0.199925 0.032231 0.000000
0.293225 0.034827 0.000000
0.378783 0.038087 0.000000
0.454962 0.042524 0.000000
0.523588 0.047345 0.000000
0.584082 0.053273 0.000000
0.638096 0.059614 0.000000
0.685989 0.065731 0.000000
0.729513 0.071980 0.000000
0.769629 0.078161 0.000000
0.806583 0.084063 0.000000
0.842151 0.089295 0.000000
0.875745 0.093840 0.000000
0.907845 0.097517 0.000000
0.938783 0.100177 0.000000
0.969370 0.101917 0.000000
1.000000 0.102421 0.000000
0.000000 0.059856 0.000000
0.100177 0.061217 0.000000
0.196539 0.064280 0.000000
0.288240 0.069674 0.000000
0.372307 0.076323 0.000000
0.447932 0.085140 0.000000
0.516022 0.094657 0.000000
0.575908 0.106139 0.000000
0.629278 0.118171 0.000000
0.677115 0.130054 0.000000
0.720789 0.142288 0.000000
0.761248 0.153860 0.000000
0.798889 0.165632 0.000000
0.835583 0.175774 0.000000
0.870055 0.184294 0.000000
0.903672 0.191417 0.000000
0.935720 0.196539 0.000000
0.967768 0.199925 0.000000
1.000000 0.200900 0.000000
0.000000 0.090151 0.000000
0.097517 0.092155 0.000000
0.191417 0.096328 0.000000
0.280907 0.104315 0.000000
0.363018 0.114254 0.000000
0.437063 0.127187 0.000000
0.504164 0.141394 0.000000
0.562608 0.157850 0.000000
0.615389 0.175395 0.000000
0.662559 0.192461 0.000000
0.706085 0.210069 0.000000
0.747345 0.226773 0.000000
0.785707 0.243699 0.000000
0.823662 0.258204 0.000000
0.859722 0.270561 0.000000
0.895685 0.280907 0.000000
0.930326 0.288240 0.000000
0.965173 0.293225 0.000000
1.000000 0.294693 0.000000
0.000000 0.121676 0.000000
0.093840 0.124255 0.000000
0.184294 0.129945 0.000000
0.270561 0.140278 0.000000
0.350472 0.153073 0.000000
0.422346 0.169218 0.000000
0.487684 0.187491 0.000000
0.544583 0.208422 0.000000
0.596356 0.230360 0.000000
0.642915 0.252651 0.000000
0.686817 0.274224 0.000000
0.728755 0.295281 0.000000
0.768587 0.316938 0.000000
0.808253 0.335192 0.000000
0.846927 0.350472 0.000000
0.885746 0.363018 0.000000
0.923677 0.372307 0.000000
0.961913 0.378783 0.000000
1.000000 0.380609 0.000000
0.000000 0.155089 0.000000
0.089295 0.157849 0.000000
0.175774 0.164417 0.000000
0.258204 0.176338 0.000000
0.335192 0.191747 0.000000
0.404419 0.211180 0.000000
0.468140 0.232510 0.000000
0.523312 0.257241 0.000000
0.573516 0.283405 0.000000
0.619792 0.309042 0.000000
0.663596 0.335118 0.000000
0.705820 0.359309 0.000000
0.746762 0.383522 0.000000
0.788820 0.404419 0.000000
0.830782 0.422346 0.000000
0.872813 0.437063 0.000000
0.914860 0.447932 0.000000
0.957476 0.454962 0.000000
1.000000 0.457201 0.000000
0.000000 0.190625 0.000000
0.084063 0.193417 0.000000
0.165632 0.201111 0.000000
0.243699 0.214293 0.000000
0.316938 0.231413 0.000000
0.383522 0.253238 0.000000
0.445724 0.277466 0.000000
0.498495 0.305091 0.000000
0.547168 0.334741 0.000000
0.593125 0.362883 0.000000
0.636827 0.392253 0.000000
0.680218 0.419814 0.000000
0.722534 0.445724 0.000000
0.767490 0.468140 0.000000
0.812509 0.487684 0.000000
0.858606 0.504164 0.000000
0.905343 0.516022 0.000000
0.952655 0.523588 0.000000
1.000000 0.525738 0.000000
0.000000 0.227550 0.000000
0.078161 0.230371 0.000000
0.153860 0.238752 0.000000
0.226773 0.252655 0.000000
0.295281 0.271245 0.000000
0.359309 0.294180 0.000000
0.419814 0.319782 0.000000
0.470190 0.348827 0.000000
0.517567 0.379472 0.000000
0.563398 0.409875 0.000000
0.607005 0.440249 0.000000
0.651173 0.470190 0.000000
0.694909 0.498495 0.000000
0.742759 0.523312 0.000000
0.791578 0.544583 0.000000
0.842150 0.562608 0.000000
0.893861 0.575908 0.000000
0.946726 0.584082 0.000000
1.000000 0.586727 0.000000
0.000000 0.267406 0.000000
0.071980 0.270487 0.000000
0.142288 0.279211 0.000000
0.210069 0.293915 0.000000
0.274224 0.313183 0.000000
0.335118 0.336404 0.000000
0.392253 0.363173 0.000000
0.440249 0.392995 0.000000
0.486891 0.423711 0.000000
0.531818 0.455198 0.000000
0.576289 0.486891 0.000000
0.620528 0.517567 0.000000
0.665259 0.547168 0.000000
0.716595 0.573516 0.000000
0.769640 0.596356 0.000000
0.824605 0.615389 0.000000
0.881829 0.629278 0.000000
0.940385 0.638096 0.000000
1.000000 0.640820 0.000000
0.000000 0.311219 0.000000
0.065731 0.314011 0.000000
0.130054 0.322885 0.000000
0.192461 0.337441 0.000000
0.252651 0.357085 0.000000
0.309042 0.380208 0.000000
0.362883 0.406875 0.000000
0.409875 0.436602 0.000000
0.455198 0.468182 0.000000
0.500000 0.500000 0.000000
0.544802 0.531818 0.000000
0.590125 0.563398 0.000000
0.637117 0.593125 0.000000
0.690958 0.619792 0.000000
0.747349 0.642915 0.000000
0.807539 0.662559 0.000000
0.869946 0.677115 0.000000
0.934269 0.685989 0.000000
1.000000 0.688781 0.000000
0.000000 0.359180 0.000000
0.059614 0.361904 0.000000
0.118171 0.370722 0.000000
0.175395 0.384611 0.000000
0.230360 0.403644 0.000000
0.283405 0.426484 0.000000
0.334741 0.452832 0.000000
0.379472 0.482433 0.000000
0.423711 0.513109 0.000000
0.468182 0.544802 0.000000
0.513109 0.576289 0.000000
0.559751 0.607005 0.000000
0.607747 0.636827 0.000000
0.664882 0.663596 0.000000
0.725776 0.686817 0.000000
0.789931 0.706085 0.000000
0.857712 0.720789 0.000000
0.928019 0.729513 0.000000
1.000000 0.732594 0.000000
0.000000 0.413273 0.000000
0.053273 0.415918 0.000000
0.106139 0.424092 0.000000
0.157850 0.437392 0.000000
0.208422 0.455417 0.000000
0.257241 0.476688 0.000000
0.305091 0.501505 0.000000
0.348827 0.529810 0.000000
0.392995 0.559751 0.000000
0.436602 0.590125 0.000000
0.482433 0.620528 0.000000
0.529810 0.651173 0.000000
0.580186 0.680218 0.000000
0.640691 0.705820 0.000000
0.704719 0.728755 0.000000
0.773227 0.747345 0.000000
0.846140 0.761248 0.000000
0.921838 0.769629 0.000000
1.000000 0.772450 0.000000
0.000000 0.474262 0.000000
0.047345 0.476412 0.000000
0.094657 0.483978 0.000000
0.141394 0.495836 0.000000
0.187491 0.512316 0.000000
0.232510 0.531860 0.000000
0.277466 0.554276 0.000000
0.319782 0.580186 0.000000
0.363173 0.607747 0.000000
0.406875 0.637117 0.000000
0.452832 0.665259 0.000000
0.501505 0.694909 0.000000
0.554276 0.722534 0.000000
0.616478 0.746762 0.000000
0.683062 0.768587 0.000000
0.756301 0.785707 0.000000
0.834368 0.798889 0.000000
0.915936 0.806583 0.000000
1.000000 0.809375 0.000000
0.000000 0.542799 0.000000
0.042524 0.545038 0.000000
0.085140 0.552068 0.000000
0.127187 0.562937 0.000000
0.169218 0.577654 0.000000
0.211180 0.595581 0.000000
0.253238 0.616478 0.000000
0.294180 0.640691 0.000000
0.336404 0.664882 0.000000
0.380208 0.690958 0.000000
0.426484 0.716595 0.000000
0.476688 0.742759 0.000000
0.531860 0.767490 0.000000
0.595581 0.788820 0.000000
0.664808 0.808253 0.000000
0.741796 0.823662 0.000000
0.824226 0.835583 0.000000
0.910704 0.842151 0.000000
1.000000 0.844911 0.000000
0.000000 0.619391 0.000000
0.038087 0.621217 0.000000
0.076323 0.627693 0.000000
0.114254 0.636982 0.000000
0.153073 0.649528 0.000000
0.191747 0.664808 0.000000
0.231413 0.683062 0.000000
0.271245 0.704719 0.000000
0.313183 0.725776 0.000000
0.357085 0.747349 0.000000
0.403644 0.769640 0.000000
0.455417 0.791578 0.000000
0.512316 0.812509 0.000000
0.577654 0.830782 0.000000
0.649528 0.846927 0.000000
0.729439 0.859722 0.000000
0.815706 0.870055 0.000000
0.906159 0.875745 0.000000
1.000000 0.878324 0.000000
0.000000 0.705307 0.000000
0.034827 0.706775 0.000000
0.069674 0.711760 0.000000
0.104315 0.719093 0.000000
0.140278 0.729439 0.000000
0.176338 0.741796 0.000000
0.214293 0.756301 0.000000
0.252655 0.773227 0.000000
0.293915 0.789931 0.000000
0.337441 0.807539 0.000000
0.384611 0.824605 0.000000
0.437392 0.842150 0.000000
0.495836 0.858606 0.000000
0.562937 0.872813 0.000000
0.636982 0.885746 0.000000
0.719093 0.895685 0.000000
0.808583 0.903672 0.000000
0.902482 0.907845 0.000000
1.000000 0.909849 0.000000
0.000000 0.799100 0.000000
0.032231 0.800075 0.000000
0.064280 0.803461 0.000000
0.096328 0.808583 0.000000
0.129945 0.815706 0.000000
0.164417 0.824226 0.000000
0.201111 0.834368 0.000000
0.238752 0.846140 0.000000
0.279211 0.857712 0.000000
0.322885 0.869946 0.000000
0.370722 0.881829 0.000000
0.424092 0.893861 0.000000
0.483978 0.905343 0.000000
0.552068 0.914860 0.000000
0.627693 0.923677 0.000000
0.711760 0.930326 0.000000
0.803461 0.935720 0.000000
0.899823 0.938783 0.000000
1.000000 0.940144 0.000000
0.000000 0.897578 0.000000
0.030630 0.898083 0.000000
0.061217 0.899823 0.000000
0.092155 0.902482 0.000000
0.124255 0.906159 0.000000
0.157849 0.910704 0.000000
0.193417 0.915936 0.000000
0.230371 0.921838 0.000000
0.270487 0.928019 0.000000
0.314011 0.934269 0.000000
0.361904 0.940385 0.000000
0.415918 0.946726 0.000000
0.476412 0.952655 0.000000
0.545038 0.957476 0.000000
0.621217 0.961913 0.000000
0.706775 0.965173 0.000000
0.800075 0.967768 0.000000
0.898083 0.969370 0.000000
1.000000 0.970024 0.000000
0.000000 1.000000 0.000000
0.029975 1.000000 0.000000
0.059856 1.000000 0.000000
0.090151 1.000000 0.000000
0.121676 1.000000 0.000000
0.155089 1.000000 0.000000
0.190625 1.000000 0.000000
0.227550 1.000000 0.000000
0.267406 1.000000 0.000000
0.311219 1.000000 0.000000
0.359180 1.000000 0.000000
0.413273 1.000000 0.000000
0.474262 1.000000 0.000000
0.542799 1.000000 0.000000
0.619391 1.000000 0.000000
0.705307 1.000000 0.000000
0.799100 1.000000 0.000000
0.897578 1.000000 0.000000
1.000000 1.000000 0.000000
0.000000 0.000000 0.055000
0.102421 0.000000 0.055000
0.200900 0.000000 0.055000
0.294693 0.000000 0.055000
0.380609 0.000000 0.055000
0.457201 0.000000 0.055000
0.525738 0.000000 0.055000
0.586727 0.000000 0.055000
0.640820 0.000000 0.055000
0.688781 0.000000 0.055000
0.732594 0.000000 0.055000
0.772450 0.000000 0.055000
0.809375 0.000000 0.055000
0.844911 0.000000 0.055000
0.878324 0.000000 0.055000
0.909849 0.000000 0.055000
0.940144 0.000000 0.055000
0.970024 0.000000 0.055000
1.000000 0.000000 0.055000
0.000000 0.029975 0.055000
0.101917 0.030630 0.055000
0.199925 0.032231 0.055000
0.293225 0.034827 0.055000
0.378783 0.038087 0.055000
0.454962 0.042524 0.055000
0.523588 0.047345 0.055000
0.584082 0.053273 0.055000
0.638096 0.059614 0.055000
0.685989 0.065731 0.055000
0.729513 0.071980 0.055000
0.769629 0.078161 0.055000
0.806583 0.084063 0.055000
0.842151 0.089295 0.055000
0.875745 0.093840 0.055000
0.907845 0.097517 0.055000
0.938783 0.100177 0.055000
0.969370 0.101917 0.055000
1.000000 0.102421 0.055000
0.000000 0.059856 0.055000
0.100177 0.061217 0.055000
0.196539 0.064280 0.055000
0.288240 0.069674 0.055000
0.372307 0.076323 0.055000
0.447932 0.085140 0.055000
0.516022 0.094657 0.055000
0.575908 0.106139 0.055000
0.629278 0.118171 0.055000
0.677115 0.130054 0.055000
0.720789 0.142288 0.055000
0.761248 0.153860 0.055000
0.798889 0.165632 0.055000
0.835583 0.175774 0.055000
0.870055 0.184294 0.055000
0.903672 0.191417 0.055000
0.935720 0.196539 0.055000
0.967768 0.199925 0.055000
1.000000 0.200900 0.055000
0.000000 0.090151 0.055000
0.097517 0.092155 0.055000
0.191417 0.096328 0.055000
0.280907 0.104315 0.055000
0.363018 0.114254 0.055000
0.437063 0.127187 0.055000
0.504164 0.141394 0.055000
0.562608 0.157850 0.055000
0.615389 0.175395 0.055000
0.662559 0.192461 0.055000
0.706085 0.210069 0.055000
0.747345 0.226773 0.055000
0.785707 0.243699 0.055000
0.823662 0.258204 0.055000
0.859722 0.270561 0.055000
0.895685 0.280907 0.055000
0.930326 0.288240 0.055000
0.965173 0.293225 0.055000
1.000000 0.294693 0.055000
0.000000 0.121676 0.055000
0.093840 0.124255 0.055000
0.184294 0.129945 0.055000
0.270561 0.140278 0.055000
0.350472 0.153073 0.055000
0.422346 0.169218 0.055000
0.487684 0.187491 0.055000
0.544583 0.208422 0.055000
0.596356 0.230360 0.055000
0.642915 0.252651 0.055000
0.686817 0.274224 0.055000
0.728755 0.295281 0.055000
0.768587 0.316938 0.055000
0.808253 0.335192 0.055000
0.846927 0.350472 0.055000
0.885746 0.363018 0.055000
0.923677 0.372307 0.055000
0.961913 0.378783 0.055000
1.000000 0.380609 0.055000
0.000000 0.155089 0.055000
0.089295 0.157849 0.055000
0.175774 0.164417 0.055000
0.258204 0.176338 0.055000
0.335192 0.191747 0.055000
0.404419 0.211180 0.055000
0.468140 0.232510 0.055000
0.523312 0.257241 0.055000
0.573516 0.283405 0.055000
0.619792 0.309042 0.055000
0.663596 0.335118 0.055000
0.705820 0.359309 0.055000
0.746762 0.383522 0.055000
0.788820 0.404419 0.055000
0.830782 0.422346 0.055000
0.872813 0.437063 0.055000
0.914860 0.447932 0.055000
0.957476 0.454962 0.055000
1.000000 0.457201 0.055000
0.000000 0.190625 0.055000
0.084063 0.193417 0.055000
0.165632 0.201111 0.055000
0.243699 0.214293 0.055000
0.316938 0.231413 0.055000
0.383522 0.253238 0.055000
0.445724 0.277466 0.055000
0.498495 0.305091 0.055000
0.547168 0.334741 0.055000
0.593125 0.362883 0.055000
0.636827 0.392253 0.055000
0.680218 0.419814 0.055000
0.722534 0.445724 0.055000
0.767490 0.468140 0.055000
0.812509 0.487684 0.055000
0.858606 0.504164 0.055000
0.905343 0.516022 0.055000
0.952655 0.523588 0.055000
1.000000 0.525738 0.055000
0.000000 0.227550 0.055000
0.078161 0.230371 0.055000
0.153860 0.238752 0.055000
0.226773 0.252655 0.055000
0.295281 0.271245 0.055000
0.359309 0.294180 0.055000
0.419814 0.319782 0.055000
0.470190 0.348827 0.055000
0.517567 0.379472 0.055000
0.563398 0.409875 0.055000
0.607005 0.440249 0.055000
0.651173 0.470190 0.055000
0.694909 0.498495 0.055000
0.742759 0.523312 0.055000
0.791578 0.544583 0.055000
0.842150 0.562608 0.055000
0.893861 0.575908 0.055000
0.946726 0.584082 0.055000
1.000000 0.586727 0.055000
0.000000 0.267406 0.055000
0.071980 0.270487 0.055000
0.142288 0.279211 0.055000
0.210069 0.293915 0.055000
0.274224 0.313183 0.055000
0.335118 0.336404 0.055000
0.392253 0.363173 0.055000
0.440249 0.392995 0.055000
0.486891 0.423711 0.055000
0.531818 0.455198 0.055000
0.576289 0.486891 0.055000
0.620528 0.517567 0.055000
0.665259 0.547168 0.055000
0.716595 0.573516 0.055000
0.769640 0.596356 0.055000
0.824605 0.615389 0.055000
0.881829 0.629278 0.055000
0.940385 0.638096 0.055000
1.000000 0.640820 0.055000
0.000000 0.311219 0.055000
0.065731 0.314011 0.055000
0.130054 0.322885 0.055000
0.192461 0.337441 0.055000
0.252651 0.357085 0.055000
0.309042 0.380208 0.055000
0.362883 0.406875 0.055000
0.409875 0.436602 0.055000
0.455198 0.468182 0.055000
0.500000 0.500000 0.055000
0.544802 0.531818 0.055000
0.590125 0.563398 0.055000
0.637117 0.593125 0.055000
0.690958 0.619792 0.055000
0.747349 0.642915 0.055000
0.807539 0.662559 0.055000
0.869946 0.677115 0.055000
0.934269 0.685989 0.055000
1.000000 0.688781 0.055000
0.000000 0.359180 0.055000
0.059614 0.361904 0.055000
0.118171 0.370722 0.055000
0.175395 0.384611 0.055000
0.230360 0.403644 0.055000
0.283405 0.426484 0.055000
0.334741 0.452832 0.055000
0.379472 0.482433 0.055000
0.423711 0.513109 0.055000
0.468182 0.544802 0.055000
0.513109 0.576289 0.055000
0.559751 0.607005 0.055000
0.607747 0.636827 0.055000
0.664882 0.663596 0.055000
0.725776 0.686817 0.055000
0.789931 0.706085 0.055000
0.857712 0.720789 0.055000
0.928019 0.729513 0.055000
1.000000 0.732594 0.055000
0.000000 0.413273 0.055000
0.053273 0.415918 0.055000
0.106139 0.424092 0.055000
0.157850 0.437392 0.055000
0.208422 0.455417 0.055000
0.257241 0.476688 0.055000
0.305091 0.501505 0.055000
0.348827 0.529810 0.055000
0.392995 0.559751 0.055000
0.436602 0.590125 0.055000
0.482433 0.620528 0.055000
0.529810 0.651173 0.055000
0.580186 0.680218 0.055000
0.640691 0.705820 0.055000
0.704719 0.728755 0.055000
0.773227 0.747345 0.055000
0.846140 0.761248 0.055000
0.921838 0.769629 0.055000
1.000000 0.772450 0.055000
0.000000 0.474262 0.055000
0.047345 0.476412 0.055000
0.094657 0.483978 0.055000
0.141394 0.495836 0.055000
0.187491 0.512316 0.055000
0.232510 0.531860 0.055000
0.277466 0.554276 0.055000
0.319782 0.580186 0.055000
0.363173 0.607747 0.055000
0.406875 0.637117 0.055000
0.452832 0.665259 0.055000
0.501505 0.694909 0.055000
0.554276 0.722534 0.055000
0.616478 0.746762 0.055000
0.683062 0.768587 0.055000
0.756301 0.785707 0.055000
0.834368 0.798889 0.055000
0.915936 0.806583 0.055000
1.000000 0.809375 0.055000
0.000000 0.542799 0.055000
0.042524 0.545038 0.055000
0.085140 0.552068 0.055000
0.127187 0.562937 0.055000
0.169218 0.577654 0.055000
0.211180 0.595581 0.055000
0.253238 0.616478 0.055000
0.294180 0.640691 0.055000
0.336404 0.664882 0.055000
0.380208 0.690958 0.055000
0.426484 0.716595 0.055000
0.476688 0.742759 0.055000
0.531860 0.767490 0.055000
0.595581 0.788820 0.055000
0.664808 0.808253 0.055000
0.741796 0.823662 0.055000
0.824226 0.835583 0.055000
0.910704 0.842151 0.055000
1.000000 0.844911 0.055000
0.000000 0.619391 0.055000
0.038087 0.621217 0.055000
0.076323 0.627693 0.055000
0.114254 0.636982 0.055000
0.153073 0.649528 0.055000
0.191747 0.664808 0.055000
0.231413 0.683062 0.055000
0.271245 0.704719 0.055000
0.313183 0.725776 0.055000
0.357085 0.747349 0.055000
0.403644 0.769640 0.055000
0.455417 0.791578 0.055000
0.512316 0.812509 0.055000
0.577654 0.830782 0.055000
0.649528 0.846927 0.055000
0.729439 0.859722 0.055000
0.815706 0.870055 0.055000
0.906159 0.875745 0.055000
1.000000 0.878324 0.055000
0.000000 0.705307 0.055000
0.034827 0.706775 0.055000
0.069674 0.711760 0.055000
0.104315 0.719093 0.055000
0.140278 0.729439 0.055000
0.176338 0.741796 0.055000
0.214293 0.756301 0.055000
0.252655 0.773227 0.055000
0.293915 0.789931 0.055000
0.337441 0.807539 0.055000
0.384611 0.824605 0.055000
0.437392 0.842150 0.055000
0.495836 0.858606 0.055000
0.562937 0.872813 0.055000
0.636982 0.885746 0.055000
0.719093 0.895685 0.055000
0.808583 0.903672 0.055000
0.902482 0.907845 0.055000
1.000000 0.909849 0.055000
0.000000 0.799100 0.055000
0.032231 0.800075 0.055000
0.064280 0.803461 0.055000
0.096328 0.808583 0.055000
0.129945 0.815706 0.055000
0.164417 0.824226 0.055000
0.201111 0.834368 0.055000
0.238752 0.846140 0.055000
0.279211 0.857712 0.055000
0.322885 0.869946 0.055000
0.370722 0.881829 0.055000
0.424092 0.893861 0.055000
0.483978 0.905343 0.055000
0.552068 0.914860 0.055000
0.627693 0.923677 0.055000
0.711760 0.930326 0.055000
0.803461 0.935720 0.055000
0.899823 0.938783 0.055000
1.000000 0.940144 0.055000
0.000000 0.897578 0.055000
0.030630 0.898083 0.055000
0.061217 0.899823 0.055000
0.092155 0.902482 0.055000
0.124255 0.906159 0.055000
0.157849 0.910704 0.055000
0.193417 0.915936 0.055000
0.230371 0.921838 0.055000
0.270487 0.928019 0.055000
0.314011 0.934269 0.055000
0.361904 0.940385 0.055000
0.415918 0.946726 0.055000
0.476412 0.952655 0.055000
0.545038 0.957476 0.055000
0.621217 0.961913 0.055000
0.706775 0.965173 0.055000
0.800075 0.967768 0.055000
0.898083 0.969370 0.055000
1.000000 0.970024 0.055000
0.000000 1.000000 0.055000
0.029975 1.000000 0.055000
0.059856 1.000000 0.055000
0.090151 1.000000 0.055000
0.121676 1.000000 0.055000
0.155089 1.000000 0.055000
0.190625 1.000000 0.055000
0.227550 1.000000 0.055000
0.267406 1.000000 0.055000
0.311219 1.000000 0.055000
0.359180 1.000000 0.055000
0.413273 1.000000 0.055000
0.474262 1.000000 0.055000
0.542799 1.000000 0.055000
0.619391 1.000000 0.055000
0.705307 1.000000 0.055000
0.799100 1.000000 0.055000
0.897578 1.000000 0.055000
1.000000 1.000000 0.055000
0.000000 0.000000 0.110000
0.102421 0.000000 0.110000
0.200900 0.000000 0.110000
0.294693 0.000000 0.110000
0.380609 0.000000 0.110000
0.457201 0.000000 0.110000
0.525738 0.000000 0.110000
0.586727 0.000000 0.110000
0.640820 0.000000 0.110000
0.688781 0.000000 0.110000
0.732594 0.000000 0.110000
0.772450 0.000000 0.110000
0.809375 0.000000 0.110000
0.844911 0.000000 0.110000
0.878324 0.000000 0.110000
0.909849 0.000000 0.110000
0.940144 0.000000 0.110000