# vtk DataFile Version 2.0
Mesh for Fierro
ASCII 
DATASET UNSTRUCTURED_GRID

POINTS 2527 float
0.000000 0.000000 0.000000
0.374366 0.000000 0.000000
0.618461 0.000000 0.000000
0.720799 0.000000 0.000000
0.794578 0.000000 0.000000
0.835568 0.000000 0.000000
0.865375 0.000000 0.000000
0.887733 0.000000 0.000000
0.906049 0.000000 0.000000
0.920549 0.000000 0.000000
0.932412 0.000000 0.000000
0.942978 0.000000 0.000000
0.952063 0.000000 0.000000
0.960834 0.000000 0.000000
0.968917 0.000000 0.000000
0.976543 0.000000 0.000000
0.984216 0.000000 0.000000
0.992070 0.000000 0.000000
1.000000 0.000000 0.000000
0.000000 0.007919 0.000000
0.373017 0.008880 0.000000
0.613167 0.021628 0.000000
0.716077 0.035103 0.000000
0.790086 0.056710 0.000000
0.831876 0.086981 0.000000
0.861632 0.119875 0.000000
0.883315 0.150818 0.000000
0.900590 0.183186 0.000000
0.914450 0.217312 0.000000
0.926573 0.247034 0.000000
0.937337 0.277876 0.000000
0.946718 0.306632 0.000000
0.955842 0.327653 0.000000
0.964539 0.344795 0.000000
0.973374 0.357973 0.000000
0.982247 0.365736 0.000000
0.991096 0.373060 0.000000
1.000000 0.374259 0.000000
0.000000 0.015745 0.000000
0.365686 0.017730 0.000000
0.602107 0.041665 0.000000
0.709689 0.068506 0.000000
0.779294 0.108344 0.000000
0.819320 0.159694 0.000000
0.845249 0.217559 0.000000
0.864788 0.268805 0.000000
0.878801 0.322324 0.000000
0.887862 0.373756 0.000000
0.894401 0.421078 0.000000
0.899704 0.464318 0.000000
0.905406 0.503507 0.000000
0.914860 0.535102 0.000000
0.926050 0.563127 0.000000
0.940845 0.585479 0.000000
0.958346 0.602015 0.000000
0.978372 0.613163 0.000000
1.000000 0.618512 0.000000
0.000000 0.023464 0.000000
0.357980 0.026604 0.000000
0.585461 0.059162 0.000000
0.695201 0.097646 0.000000
0.759679 0.152248 0.000000
0.795731 0.215994 0.000000
0.814888 0.288090 0.000000
0.830399 0.347120 0.000000
0.833972 0.413410 0.000000
0.836149 0.470234 0.000000
0.835900 0.525081 0.000000
0.839281 0.572808 0.000000
0.844307 0.616762 0.000000
0.858595 0.649004 0.000000
0.876716 0.676827 0.000000
0.902343 0.695213 0.000000
0.931495 0.709689 0.000000
0.964875 0.716070 0.000000
1.000000 0.720807 0.000000
0.000000 0.031183 0.000000
0.344867 0.035452 0.000000
0.563171 0.074004 0.000000
0.676830 0.123282 0.000000
0.735099 0.188885 0.000000
0.768245 0.261648 0.000000
0.778763 0.342384 0.000000
0.789686 0.407288 0.000000
0.781658 0.477919 0.000000
0.777622 0.535070 0.000000
0.771968 0.586423 0.000000
0.773090 0.629586 0.000000
0.772744 0.670413 0.000000
0.788651 0.704300 0.000000
0.811104 0.735108 0.000000
0.847767 0.759671 0.000000
0.891657 0.779282 0.000000
0.943307 0.790094 0.000000
1.000000 0.794586 0.000000
0.000000 0.039275 0.000000
0.327569 0.044154 0.000000
0.535056 0.085161 0.000000
0.648976 0.141394 0.000000
0.704325 0.211336 0.000000
0.733389 0.287811 0.000000
0.738537 0.368543 0.000000
0.743512 0.436267 0.000000
0.726217 0.501580 0.000000
0.715844 0.557394 0.000000
0.702726 0.607805 0.000000
0.698956 0.653040 0.000000
0.694806 0.695505 0.000000
0.712169 0.733394 0.000000
0.738368 0.768233 0.000000
0.784010 0.795727 0.000000
0.840315 0.819309 0.000000
0.912985 0.831857 0.000000
1.000000 0.835573 0.000000
0.000000 0.047999 0.000000
0.306731 0.053319 0.000000
0.503531 0.094627 0.000000
0.616790 0.155690 0.000000
0.670408 0.227284 0.000000
0.695488 0.305144 0.000000
0.696851 0.384772 0.000000
0.693196 0.452870 0.000000
0.667496 0.512780 0.000000
0.652443 0.566497 0.000000
0.631558 0.613824 0.000000
0.625466 0.657500 0.000000
0.615214 0.696848 0.000000
0.631430 0.738566 0.000000
0.657696 0.778796 0.000000
0.711955 0.814920 0.000000
0.782381 0.845288 0.000000
0.880026 0.861629 0.000000
1.000000 0.865349 0.000000
0.000000 0.057043 0.000000
0.277812 0.062672 0.000000
0.464236 0.100299 0.000000
0.572844 0.160717 0.000000
0.629549 0.226914 0.000000
0.653037 0.301053 0.000000
0.657484 0.374535 0.000000
0.648744 0.439908 0.000000
0.622374 0.495286 0.000000
0.599463 0.550228 0.000000
0.574689 0.599381 0.000000
0.560076 0.648724 0.000000
0.547112 0.693163 0.000000
0.563722 0.743513 0.000000
0.592674 0.789669 0.000000
0.652891 0.830398 0.000000
0.731220 0.864864 0.000000
0.849216 0.883295 0.000000
1.000000 0.887510 0.000000
0.000000 0.067705 0.000000
0.246994 0.073426 0.000000
0.421136 0.105622 0.000000
0.525092 0.164106 0.000000
0.586409 0.227993 0.000000
0.607771 0.297269 0.000000
0.613842 0.368383 0.000000
0.599394 0.425321 0.000000
0.574757 0.476269 0.000000
0.549638 0.527104 0.000000
0.523737 0.574782 0.000000
0.504696 0.622363 0.000000
0.487146 0.667492 0.000000
0.498447 0.726217 0.000000
0.522060 0.781694 0.000000
0.586601 0.833976 0.000000
0.677501 0.878782 0.000000
0.816718 0.900512 0.000000
1.000000 0.905840 0.000000
0.000000 0.079475 0.000000
0.217400 0.085576 0.000000
0.373678 0.112099 0.000000
0.470236 0.163856 0.000000
0.535095 0.222418 0.000000
0.557380 0.284133 0.000000
0.566543 0.347620 0.000000
0.550221 0.400570 0.000000
0.527076 0.450366 0.000000
0.499994 0.500022 0.000000
0.472898 0.549649 0.000000
0.449769 0.599457 0.000000
0.433523 0.652408 0.000000
0.442630 0.715878 0.000000
0.464873 0.777605 0.000000
0.529695 0.836098 0.000000
0.626252 0.887889 0.000000
0.782465 0.914460 0.000000
1.000000 0.920197 0.000000
0.000000 0.094005 0.000000
0.183313 0.099429 0.000000
0.322476 0.121228 0.000000
0.413431 0.166002 0.000000
0.477919 0.218284 0.000000
0.501572 0.273799 0.000000
0.512852 0.332507 0.000000
0.495294 0.377614 0.000000
0.476234 0.425234 0.000000
0.450383 0.472918 0.000000
0.425227 0.523742 0.000000
0.400592 0.574711 0.000000
0.386135 0.631579 0.000000
0.392269 0.702735 0.000000
0.413532 0.772016 0.000000
0.474974 0.835917 0.000000
0.578845 0.894429 0.000000
0.752923 0.926533 0.000000
1.000000 0.932047 0.000000
0.000000 0.112289 0.000000
0.150815 0.116696 0.000000
0.268832 0.135196 0.000000
0.347139 0.169608 0.000000
0.407315 0.210311 0.000000
0.436240 0.256475 0.000000
0.452893 0.306804 0.000000
0.439945 0.351246 0.000000
0.425300 0.400612 0.000000
0.400538 0.449774 0.000000
0.377642 0.504711 0.000000
0.351259 0.560087 0.000000
0.342521 0.625484 0.000000
0.346958 0.698930 0.000000
0.370432 0.773115 0.000000
0.427141 0.839290 0.000000
0.535844 0.899799 0.000000
0.722287 0.937303 0.000000
1.000000 0.942709 0.000000
0.000000 0.134669 0.000000
0.119858 0.138354 0.000000
0.217514 0.154697 0.000000
0.288115 0.185063 0.000000
0.342360 0.221275 0.000000
0.368555 0.261492 0.000000
0.384746 0.303218 0.000000
0.374536 0.342552 0.000000
0.368414 0.386153 0.000000
0.347606 0.433497 0.000000
0.332522 0.487160 0.000000
0.306807 0.547109 0.000000
0.303213 0.615240 0.000000
0.304468 0.694807 0.000000
0.329635 0.772707 0.000000
0.383204 0.844357 0.000000
0.496584 0.905406 0.000000
0.693389 0.946797 0.000000
1.000000 0.951945 0.000000
0.000000 0.164401 0.000000
0.087047 0.168109 0.000000
0.159655 0.180695 0.000000
0.216031 0.204240 0.000000
0.261611 0.231706 0.000000
0.287804 0.266557 0.000000
0.305181 0.304461 0.000000
0.301071 0.346970 0.000000
0.297262 0.392257 0.000000
0.284116 0.442638 0.000000
0.273773 0.498418 0.000000
0.256476 0.563730 0.000000
0.261485 0.631442 0.000000
0.266571 0.712189 0.000000
0.295777 0.788644 0.000000
0.350955 0.858641 0.000000
0.465042 0.914861 0.000000
0.672316 0.955945 0.000000
1.000000 0.960495 0.000000
0.000000 0.205350 0.000000
0.056710 0.209859 0.000000
0.108332 0.220708 0.000000
0.152276 0.240337 0.000000
0.188912 0.264997 0.000000
0.211376 0.295778 0.000000
0.227287 0.329642 0.000000
0.226859 0.370445 0.000000
0.227996 0.413524 0.000000
0.222393 0.464885 0.000000
0.218319 0.522041 0.000000
0.210329 0.592693 0.000000
0.221268 0.657638 0.000000
0.231721 0.738381 0.000000
0.264979 0.811077 0.000000
0.323052 0.876732 0.000000
0.437110 0.926022 0.000000
0.654934 0.964551 0.000000
1.000000 0.968552 0.000000
0.000000 0.279173 0.000000
0.035107 0.283943 0.000000
0.068455 0.290345 0.000000
0.097609 0.304758 0.000000
0.123263 0.323066 0.000000
0.141364 0.350944 0.000000
0.155612 0.383237 0.000000
0.160711 0.427155 0.000000
0.164084 0.474973 0.000000
0.163941 0.529650 0.000000
0.166016 0.586604 0.000000
0.169618 0.652881 0.000000
0.185078 0.711903 0.000000
0.204260 0.783994 0.000000
0.240339 0.847726 0.000000
0.304751 0.902390 0.000000
0.414546 0.940730 0.000000
0.641495 0.973374 0.000000
1.000000 0.976492 0.000000
0.000000 0.381610 0.000000
0.021660 0.386787 0.000000
0.041743 0.397949 0.000000
0.059284 0.414545 0.000000
0.074005 0.437084 0.000000
0.085157 0.465051 0.000000
0.094615 0.496596 0.000000
0.100227 0.535839 0.000000
0.105617 0.578802 0.000000
0.112131 0.626246 0.000000
0.121231 0.677496 0.000000
0.135137 0.731236 0.000000
0.154720 0.782352 0.000000
0.180684 0.840331 0.000000
0.220721 0.891659 0.000000
0.290345 0.931541 0.000000
0.397933 0.958283 0.000000
0.633662 0.982260 0.000000
1.000000 0.984167 0.000000
0.000000 0.625573 0.000000
0.008868 0.626619 0.000000
0.017736 0.633644 0.000000
0.026628 0.641465 0.000000
0.035441 0.654830 0.000000
0.044056 0.672178 0.000000
0.053207 0.693146 0.000000
0.062693 0.722172 0.000000
0.073499 0.752790 0.000000
0.085526 0.782483 0.000000
0.099497 0.816654 0.000000
0.116706 0.849199 0.000000
0.138357 0.879999 0.000000
0.168125 0.912954 0.000000
0.209876 0.943299 0.000000
0.283931 0.964868 0.000000
0.386752 0.978367 0.000000
0.626715 0.991125 0.000000
1.000000 0.992037 0.000000
0.000000 1.000000 0.000000
0.008002 1.000000 0.000000
0.015878 1.000000 0.000000
0.023583 1.000000 0.000000
0.031444 1.000000 0.000000
0.039535 1.000000 0.000000
0.048048 1.000000 0.000000
0.057282 1.000000 0.000000
0.068001 1.000000 0.000000
0.079867 1.000000 0.000000
0.094170 1.000000 0.000000
0.112551 1.000000 0.000000
0.134670 1.000000 0.000000
0.164433 1.000000 0.000000
0.205395 1.000000 0.000000
0.279136 1.000000 0.000000
0.381579 1.000000 0.000000
0.625631 1.000000 0.000000
1.000000 1.000000 0.000000
0.000000 0.000000 0.055163
0.374522 0.000000 0.055039
0.618268 0.000000 0.055011
0.720780 0.000000 0.055014
0.794601 0.000000 0.054979
[...]
POINT_DATA 2527 
VECTORS pos float 
0.000000 0.000000 0.000000
0.374366 0.000000 0.000000
0.618461 0.000000 0.000000
0.720799 0.000000 0.000000
0.794578 0.000000 0.000000
0.835568 0.000000 0.000000
0.865375 0.000000 0.000000
0.887733 0.000000 0.000000
0.906049 0.000000 0.000000
0.920549 0.000000 0.000000
0.932412 0.000000 0.000000
0.942978 0.000000 0.000000
0.952063 0.000000 0.000000
0.960834 0.000000 0.000000
0.968917 0.000000 0.000000
0.976543 0.000000 0.000000
0.984216 0.000000 0.000000
0.992070 0.000000 0.000000
1.000000 0.000000 0.000000
0.000000 0.007919 0.000000
0.373017 0.008880 0.000000
0.613167 0.021628 0.000000
0.716077 0.035103 0.000000
0.790086 0.056710 0.000000
0.831876 0.086981 0.000000
0.861632 0.119875 0.000000
0.883315 0.150818 0.000000
0.900590 0.183186 0.000000
0.914450 0.217312 0.000000
0.926573 0.247034 0.000000
0.937337 0.277876 0.000000
0.946718 0.306632 0.000000
0.955842 0.327653 0.000000
0.964539 0.344795 0.000000
0.973374 0.357973 0.000000
0.982247 0.365736 0.000000
0.991096 0.373060 0.000000
1.000000 0.374259 0.000000
0.000000 0.015745 0.000000
0.365686 0.017730 0.000000
0.602107 0.041665 0.000000
0.709689 0.068506 0.000000
0.779294 0.108344 0.000000
0.819320 0.159694 0.000000
0.845249 0.217559 0.000000
0.864788 0.268805 0.000000
0.878801 0.322324 0.000000
0.887862 0.373756 0.000000
0.894401 0.421078 0.000000
0.899704 0.464318 0.000000
0.905406 0.503507 0.000000
0.914860 0.535102 0.000000
0.926050 0.563127 0.000000
0.940845 0.585479 0.000000
0.958346 0.602015 0.000000
0.978372 0.613163 0.000000
1.000000 0.618512 0.000000
0.000000 0.023464 0.000000
0.357980 0.026604 0.000000
0.585461 0.059162 0.000000
0.695201 0.097646 0.000000
0.759679 0.152248 0.000000
0.795731 0.215994 0.000000
0.814888 0.288090 0.000000
0.830399 0.347120 0.000000
0.833972 0.413410 0.000000
0.836149 0.470234 0.000000
0.835900 0.525081 0.000000
0.839281 0.572808 0.000000
0.844307 0.616762 0.000000
0.858595 0.649004 0.000000
0.876716 0.676827 0.000000
0.902343 0.695213 0.000000
0.931495 0.709689 0.000000
0.964875 0.716070 0.000000
1.000000 0.720807 0.000000
0.000000 0.031183 0.000000
0.344867 0.035452 0.000000
0.563171 0.074004 0.000000
0.676830 0.123282 0.000000
0.735099 0.188885 0.000000
0.768245 0.261648 0.000000
0.778763 0.342384 0.000000
0.789686 0.407288 0.000000
0.781658 0.477919 0.000000
0.777622 0.535070 0.000000
0.771968 0.586423 0.000000
0.773090 0.629586 0.000000
0.772744 0.670413 0.000000
0.788651 0.704300 0.000000
0.811104 0.735108 0.000000
0.847767 0.759671 0.000000
0.891657 0.779282 0.000000
0.943307 0.790094 0.000000
1.000000 0.794586 0.000000
0.000000 0.039275 0.000000
0.327569 0.044154 0.000000
0.535056 0.085161 0.000000
0.648976 0.141394 0.000000
0.704325 0.211336 0.000000
0.733389 0.287811 0.000000
0.738537 0.368543 0.000000
0.743512 0.436267 0.000000
0.726217 0.501580 0.000000
0.715844 0.557394 0.000000
0.702726 0.607805 0.000000
0.698956 0.653040 0.000000
0.694806 0.695505 0.000000
0.712169 0.733394 0.000000
0.738368 0.768233 0.000000
0.784010 0.795727 0.000000
0.840315 0.819309 0.000000
0.912985 0.831857 0.000000
1.000000 0.835573 0.000000
0.000000 0.047999 0.000000
0.306731 0.053319 0.000000
0.503531 0.094627 0.000000
0.616790 0.155690 0.000000
0.670408 0.227284 0.000000
0.695488 0.305144 0.000000
0.696851 0.384772 0.000000
0.693196 0.452870 0.000000
0.667496 0.512780 0.000000
0.652443 0.566497 0.000000
0.631558 0.613824 0.000000
0.625466 0.657500 0.000000
0.615214 0.696848 0.000000
0.631430 0.738566 0.000000
0.657696 0.778796 0.000000
0.711955 0.814920 0.000000
0.782381 0.845288 0.000000
0.880026 0.861629 0.000000
1.000000 0.865349 0.000000
0.000000 0.057043 0.000000
0.277812 0.062672 0.000000
0.464236 0.100299 0.000000
0.572844 0.160717 0.000000
0.629549 0.226914 0.000000
0.653037 0.301053 0.000000
0.657484 0.374535 0.000000
0.648744 0.439908 0.000000
0.622374 0.495286 0.000000
0.599463 0.550228 0.000000
0.574689 0.599381 0.000000
0.560076 0.648724 0.000000
0.547112 0.693163 0.000000
0.563722 0.743513 0.000000
0.592674 0.789669 0.000000
0.652891 0.830398 0.000000
0.731220 0.864864 0.000000
0.849216 0.883295 0.000000
1.000000 0.887510 0.000000
0.000000 0.067705 0.000000
0.246994 0.073426 0.000000
0.421136 0.105622 0.000000
0.525092 0.164106 0.000000
0.586409 0.227993 0.000000
0.607771 0.297269 0.000000
0.613842 0.368383 0.000000
0.599394 0.425321 0.000000
0.574757 0.476269 0.000000
0.549638 0.527104 0.000000
0.523737 0.574782 0.000000
0.504696 0.622363 0.000000
0.487146 0.667492 0.000000
0.498447 0.726217 0.000000
0.522060 0.781694 0.000000
0.586601 0.833976 0.000000
0.677501 0.878782 0.000000
0.816718 0.900512 0.000000
1.000000 0.905840 0.000000
0.000000 0.079475 0.000000
0.217400 0.085576 0.000000
0.373678 0.112099 0.000000
0.470236 0.163856 0.000000
0.535095 0.222418 0.000000
0.557380 0.284133 0.000000
0.566543 0.347620 0.000000
0.550221 0.400570 0.000000
0.527076 0.450366 0.000000
0.499994 0.500022 0.000000
0.472898 0.549649 0.000000
0.449769 0.599457 0.000000
0.433523 0.652408 0.000000
0.442630 0.715878 0.000000
0.464873 0.777605 0.000000
0.529695 0.836098 0.000000
0.626252 0.887889 0.000000
0.782465 0.914460 0.000000
1.000000 0.920197 0.000000
0.000000 0.094005 0.000000
0.183313 0.099429 0.000000
0.322476 0.121228 0.000000
0.413431 0.166002 0.000000
0.477919 0.218284 0.000000
0.501572 0.273799 0.000000
0.512852 0.332507 0.000000
0.495294 0.377614 0.000000
0.476234 0.425234 0.000000
0.450383 0.472918 0.000000
0.425227 0.523742 0.000000
0.400592 0.574711 0.000000
0.386135 0.631579 0.000000
0.392269 0.702735 0.000000
0.413532 0.772016 0.000000
0.474974 0.835917 0.000000
0.578845 0.894429 0.000000
0.752923 0.926533 0.000000
1.000000 0.932047 0.000000
0.000000 0.112289 0.000000
0.150815 0.116696 0.000000
0.268832 0.135196 0.000000
0.347139 0.169608 0.000000
0.407315 0.210311 0.000000
0.436240 0.256475 0.000000
0.452893 0.306804 0.000000
0.439945 0.351246 0.000000
0.425300 0.400612 0.000000
0.400538 0.449774 0.000000
0.377642 0.504711 0.000000
0.351259 0.560087 0.000000
0.342521 0.625484 0.000000
0.346958 0.698930 0.000000
0.370432 0.773115 0.000000
0.427141 0.839290 0.000000
0.535844 0.899799 0.000000
0.722287 0.937303 0.000000
1.000000 0.942709 0.000000
0.000000 0.134669 0.000000
0.119858 0.138354 0.000000
0.217514 0.154697 0.000000
0.288115 0.185063 0.000000
0.342360 0.221275 0.000000
0.368555 0.261492 0.000000
0.384746 0.303218 0.000000
0.374536 0.342552 0.000000
0.368414 0.386153 0.000000
0.347606 0.433497 0.000000
0.332522 0.487160 0.000000
0.306807 0.547109 0.000000
0.303213 0.615240 0.000000
0.304468 0.694807 0.000000
0.329635 0.772707 0.000000
0.383204 0.844357 0.000000
0.496584 0.905406 0.000000
0.693389 0.946797 0.000000
1.000000 0.951945 0.000000
0.000000 0.164401 0.000000
0.087047 0.168109 0.000000
0.159655 0.180695 0.000000
0.216031 0.204240 0.000000
0.261611 0.231706 0.000000
0.287804 0.266557 0.000000
0.305181 0.304461 0.000000
0.301071 0.346970 0.000000
0.297262 0.392257 0.000000
0.284116 0.442638 0.000000
0.273773 0.498418 0.000000
0.256476 0.563730 0.000000
0.261485 0.631442 0.000000
0.266571 0.712189 0.000000
0.295777 0.788644 0.000000
0.350955 0.858641 0.000000
0.465042 0.914861 0.000000
0.672316 0.955945 0.000000
1.000000 0.960495 0.000000
0.000000 0.205350 0.000000
0.056710 0.209859 0.000000
0.108332 0.220708 0.000000
0.152276 0.240337 0.000000
0.188912 0.264997 0.000000
0.211376 0.295778 0.000000
0.227287 0.329642 0.000000
0.226859 0.370445 0.000000
0.227996 0.413524 0.000000
0.222393 0.464885 0.000000
0.218319 0.522041 0.000000
0.210329 0.592693 0.000000
0.221268 0.657638 0.000000
0.231721 0.738381 0.000000
0.264979 0.811077 0.000000
0.323052 0.876732 0.000000
0.437110 0.926022 0.000000
0.654934 0.964551 0.000000
1.000000 0.968552 0.000000
0.000000 0.279173 0.000000
0.035107 0.283943 0.000000
0.068455 0.290345 0.000000
0.097609 0.304758 0.000000
0.123263 0.323066 0.000000
0.141364 0.350944 0.000000
0.155612 0.383237 0.000000
0.160711 0.427155 0.000000
0.164084 0.474973 0.000000
0.163941 0.529650 0.000000
0.166016 0.586604 0.000000
0.169618 0.652881 0.000000
0.185078 0.711903 0.000000
0.204260 0.783994 0.000000
0.240339 0.847726 0.000000
0.304751 0.902390 0.000000
0.414546 0.940730 0.000000
0.641495 0.973374 0.000000
1.000000 0.976492 0.000000
0.000000 0.381610 0.000000
0.021660 0.386787 0.000000
0.041743 0.397949 0.000000
0.059284 0.414545 0.000000
0.074005 0.437084 0.000000
0.085157 0.465051 0.000000
0.094615 0.496596 0.000000
0.100227 0.535839 0.000000
0.105617 0.578802 0.000000
0.112131 0.626246 0.000000
0.121231 0.677496 0.000000
0.135137 0.731236 0.000000
0.154720 0.782352 0.000000
0.180684 0.840331 0.000000
0.220721 0.891659 0.000000
0.290345 0.931541 0.000000
0.397933 0.958283 0.000000
0.633662 0.982260 0.000000
1.000000 0.984167 0.000000
0.000000 0.625573 0.000000
0.008868 0.626619 0.000000
0.017736 0.633644 0.000000
0.026628 0.641465 0.000000
0.035441 0.654830 0.000000
0.044056 0.672178 0.000000
0.053207 0.693146 0.000000
0.062693 0.722172 0.000000
0.073499 0.752790 0.000000
0.085526 0.782483 0.000000
0.099497 0.816654 0.000000
0.116706 0.849199 0.000000
0.138357 0.879999 0.000000
0.168125 0.912954 0.000000
0.209876 0.943299 0.000000
0.283931 0.964868 0.000000
0.386752 0.978367 0.000000
0.626715 0.991125 0.000000
1.000000 0.992037 0.000000
0.000000 1.000000 0.000000
0.008002 1.000000 0.000000
0.015878 1.000000 0.000000
0.023583 1.000000 0.000000
0.031444 1.000000 0.000000
0.039535 1.000000 0.000000
0.048048 1.000000 0.000000
0.057282 1.000000 0.000000
0.068001 1.000000 0.000000
0.079867 1.000000 0.000000
0.094170 1.000000 0.000000
0.112551 1.000000 0.000000
0.134670 1.000000 0.000000
0.164433 1.000000 0.000000
0.205395 1.000000 0.000000
0.279136 1.000000 0.000000
0.381579 1.000000 0.000000
0.625631 1.000000 0.000000
1.000000 1.000000 0.000000
0.000000 0.000000 0.055163
0.374522 0.000000 0.055039
0.618268 0.000000 0.055011
0.720780 0.000000 0.055014
0.794601 0.000000 0.054979
0.835599 0.000000 0.055003
0.865444 0.000000 0.055005
0.887588 0.000000 0.054952
0.905847 0.000000 0.055050
0.920303 0.000000 0.055039
0.932088 0.000000 0.055087
0.942811 0.000000 0.054910
0.951969 0.000000 0.054973
0.960524 0.000000 0.054940
0.968690 0.000000 0.055056
0.976477 0.000000 0.054964
0.984154 0.000000 0.055076
0.992106 0.000000 0.055145
1.000000 0.000000 0.055093
0.000000 0.007895 0.055197
0.373400 0.008877 0.055048
0.613135 0.021673 0.055000
0.716059 0.035083 0.054987
0.790112 0.056740 0.055006
0.831885 0.086985 0.054976
0.861686 0.119854 0.054994
0.883283 0.150869 0.055000
0.900559 0.183333 0.054987
0.914473 0.217596 0.054971
0.926550 0.247164 0.055016
0.937331 0.277656 0.054969
0.946773 0.306918 0.054950
0.955893 0.327963 0.055024
0.964530 0.345291 0.055012
0.973362 0.358390 0.055011
0.982247 0.366173 0.055046
0.991121 0.373435 0.055022
1.000000 0.374677 0.055042
0.000000 0.015829 0.055076
0.366120 0.017743 0.055050
0.602122 0.041729 0.054996
0.709655 0.068470 0.054996
0.779315 0.108371 0.054980
0.819326 0.159681 0.055003
0.845332 0.217531 0.054979
0.864856 0.268843 0.055012
0.878820 0.322512 0.054969
0.887908 0.373738 0.054985
0.894439 0.421038 0.055001
0.899795 0.464002 0.055002
0.905256 0.503582 0.055003
0.914778 0.534972 0.054992
0.925972 0.562966 0.055013
0.940758 0.585459 0.055005
0.958275 0.602081 0.055003
0.978324 0.613144 0.055007
1.000000 0.618267 0.055006
0.000000 0.023503 0.054946
0.358377 0.026634 0.054987
0.585461 0.059226 0.054998
0.695162 0.097610 0.054978
0.759713 0.152268 0.055014
0.795735 0.216016 0.054998
0.814957 0.288060 0.055011
0.830395 0.347153 0.054992
0.833997 0.413392 0.055008
0.836130 0.470297 0.055022
0.835916 0.525048 0.054997
0.839286 0.572785 0.055005
0.844300 0.616860 0.055002
0.858645 0.649050 0.054979
0.876766 0.676896 0.054995
0.902415 0.695167 0.054982
0.931537 0.709663 0.054984
0.964916 0.716056 0.054989
1.000000 0.720774 0.054999
0.000000 0.031276 0.054983
0.345250 0.035477 0.054983
0.562969 0.074001 0.054992
0.676877 0.123248 0.055002
0.735042 0.188896 0.054993
0.768248 0.261610 0.055000
0.778780 0.342334 0.054998
0.789676 0.407301 0.055003
0.781702 0.477989 0.054997
0.777627 0.535080 0.054999
0.771997 0.586432 0.055000
0.773133 0.629540 0.055005
0.772718 0.670364 0.055013
0.788660 0.704236 0.055014
0.811108 0.735024 0.054997
0.847725 0.759702 0.055018
0.891616 0.779310 0.055005
0.943269 0.790106 0.055003
1.000000 0.794594 0.054973
0.000000 0.039421 0.054929
0.328033 0.044123 0.054987
0.535000 0.085207 0.054995
0.649049 0.141366 0.054993
0.704234 0.211344 0.055011
0.733439 0.287826 0.054987
0.738498 0.368597 0.055005
0.743537 0.436289 0.055008
0.726194 0.501608 0.055010
0.715881 0.557383 0.054994
0.702753 0.607775 0.054996
0.698897 0.653041 0.055014
0.694891 0.695514 0.054997
0.712181 0.733441 0.054989
0.738391 0.768269 0.054996
0.783965 0.795739 0.054983
0.840331 0.819318 0.054997
0.913021 0.831891 0.054990
1.000000 0.835625 0.055018
0.000000 0.048019 0.054958
0.306860 0.053237 0.054933
0.503570 0.094714 0.055033
0.616864 0.155710 0.054999
0.670362 0.227292 0.055003
0.695532 0.305146 0.055002
0.696792 0.384692 0.055005
0.693203 0.452879 0.055000
0.667465 0.512830 0.054995
0.652426 0.566515 0.054998
0.631579 0.613835 0.055005
0.625404 0.657451 0.054996
0.615309 0.696779 0.055012
0.631426 0.738487 0.054991
0.657651 0.778761 0.055003
0.711901 0.814960 0.055000
0.782473 0.845300 0.055007
0.880120 0.861671 0.055010
1.000000 0.865495 0.054994
0.000000 0.057164 0.054930
0.277707 0.062672 0.054977
0.464043 0.100214 0.054999
0.572765 0.160693 0.055014
0.629537 0.226858 0.054986
0.653032 0.301081 0.055009
0.657472 0.374564 0.054993
0.648746 0.439907 0.055001
0.622375 0.495272 0.054994
0.599469 0.550237 0.054998
0.574696 0.599360 0.055004
0.560068 0.648748 0.054997
0.547125 0.693207 0.054987
0.563731 0.743535 0.055005
0.592680 0.789679 0.054998
0.652853 0.830402 0.054994
0.731162 0.864851 0.054987
0.849109 0.883298 0.055008
1.000000 0.887651 0.055038
0.000000 0.067874 0.055049
0.247058 0.073431 0.055023
0.421070 0.105572 0.055028
0.525045 0.164104 0.055005
0.586419 0.227955 0.055022
0.607760 0.297243 0.055013
0.613846 0.368416 0.055011
0.599375 0.425323 0.054988
0.574757 0.476260 0.054994
0.549655 0.527083 0.055008
0.523745 0.574765 0.055006
0.504751 0.622373 0.055005
0.487180 0.667481 0.055008
0.498396 0.726195 0.055023
0.522040 0.781692 0.055012
0.586599 0.833999 0.054976
0.677465 0.878810 0.055000
0.816626 0.900562 0.055009
1.000000 0.906003 0.054971
0.000000 0.079651 0.055021
0.217542 0.085539 0.054981
0.373685 0.112058 0.055017
0.470298 0.163873 0.054990
0.535107 0.222409 0.055011
0.557399 0.284144 0.054998
0.566509 0.347600 0.055007
0.550242 0.400531 0.055004
0.527096 0.450349 0.055005
0.500001 0.500007 0.055003
0.472899 0.549664 0.055010
0.449765 0.599488 0.055004
0.433477 0.652412 0.054995
0.442641 0.715902 0.054988
0.464906 0.777621 0.055006
0.529707 0.836130 0.055016
0.626286 0.887910 0.055005
0.782490 0.914449 0.055011
1.000000 0.920441 0.055092
0.000000 0.094115 0.055076
0.183375 0.099428 0.054986
0.322507 0.121186 0.055001
0.413401 0.165995 0.054995
0.477960 0.218288 0.055001
0.501595 0.273792 0.054983
0.512842 0.332526 0.055002
0.495261 0.377626 0.054996
0.476263 0.425249 0.054986
0.450351 0.472906 0.055013
0.425245 0.523749 0.054989
0.400620 0.574676 0.055006
0.386153 0.631552 0.054999
0.392239 0.702716 0.055003
0.413546 0.772006 0.054977
0.474962 0.835925 0.054985
0.578967 0.894417 0.054993
0.753008 0.926595 0.054985
1.000000 0.932282 0.055003
0.000000 0.112403 0.054950
0.150867 0.116729 0.055008
0.268844 0.135160 0.055008
0.347151 0.169604 0.055004
0.407311 0.210327 0.054991
0.436269 0.256464 0.054997
0.452872 0.306784 0.054996
0.439939 0.351249 0.054998
0.425310 0.400628 0.055002
0.400516 0.449762 0.055004
0.377632 0.504750 0.055001
0.351229 0.560077 0.054986
0.342533 0.625444 0.055024
0.346979 0.698953 0.055006
0.370440 0.773113 0.055024
0.427234 0.839313 0.054994
0.535862 0.899740 0.055005
0.722327 0.937331 0.054985
1.000000 0.942957 0.055055
0.000000 0.134557 0.055008
0.119831 0.138329 0.055008
0.217503 0.154668 0.054982
0.288035 0.185056 0.055012
0.342328 0.221220 0.055020
0.368566 0.261503 0.055019
0.384682 0.303201 0.054973
0.374587 0.342533 0.055007
0.368433 0.386160 0.054989
0.347566 0.433498 0.054999
0.332529 0.487176 0.055000
0.306778 0.547113 0.054979
0.303209 0.615314 0.055013
0.304494 0.694867 0.055011
0.329571 0.772689 0.054969
0.383226 0.844314 0.055009
0.496398 0.905328 0.054985
0.693344 0.946716 0.055010
1.000000 0.952102 0.054974
0.000000 0.164373 0.054997
0.087022 0.168119 0.054992
0.159702 0.180709 0.054986
0.216039 0.204267 0.054988
0.261624 0.231751 0.054985
0.287858 0.266567 0.054999
0.305078 0.304506 0.055003
0.301070 0.346969 0.054992
0.297256 0.392226 0.055012
0.284126 0.442604 0.055006
0.273794 0.498396 0.054984
0.256458 0.563752 0.055001
0.261511 0.631429 0.055008
0.266560 0.712163 0.054995
0.295745 0.788689 0.054999
0.350979 0.858632 0.054997
0.464888 0.914795 0.055002
0.672285 0.955841 0.054993
1.000000 0.960737 0.054964
0.000000 0.205372 0.055000
0.056703 0.209869 0.055016
0.108343 0.220702 0.055009
0.152237 0.240326 0.054995
0.188918 0.264936 0.055000
0.211321 0.295743 0.054997
0.227256 0.329595 0.054999
0.226873 0.370440 0.055009
0.227977 0.413570 0.055001
0.222395 0.464886 0.055020
0.218287 0.522024 0.054994
0.210318 0.592677 0.054988
0.221228 0.657679 0.055019
0.231748 0.738370 0.054996
0.264937 0.811109 0.054996
0.323137 0.876755 0.054994
0.436891 0.925987 0.054998
0.654916 0.964502 0.055026
1.000000 0.968831 0.054960
0.000000 0.279188 0.054985
0.035099 0.283922 0.054988
0.068482 0.290296 0.054998
0.097620 0.304811 0.055015
0.123260 0.323130 0.054987
0.141346 0.351011 0.054997
0.155670 0.383236 0.055007
0.160699 0.427217 0.055012
0.164071 0.474960 0.054996
0.163864 0.529710 0.055009
0.165993 0.586605 0.054985
0.169614 0.652840 0.055013
0.185051 0.711952 0.055004
0.204259 0.783963 0.054981
0.240317 0.847740 0.054997
0.304822 0.902390 0.055009
0.414543 0.940811 0.054998
0.641817 0.973340 0.055015
1.000000 0.976512 0.055002
0.000000 0.381590 0.054998
0.021653 0.386826 0.055003
0.041683 0.397953 0.054991
0.059191 0.414498 0.054987
0.073985 0.436932 0.055005
0.085186 0.464907 0.055008
0.094665 0.496418 0.055009
0.100242 0.535885 0.055006
0.105572 0.578981 0.054984
0.112098 0.626268 0.055022
0.121188 0.677485 0.055007
0.135162 0.731119 0.054983
0.154674 0.782507 0.055012
0.180698 0.840304 0.054981
0.220705 0.891646 0.055010
0.290298 0.931515 0.054998
0.397953 0.958308 0.054995
0.634049 0.982221 0.054996
1.000000 0.984164 0.055022
0.000000 0.625529 0.055029
0.008905 0.626822 0.055007
0.017773 0.634092 0.055019
0.026651 0.641883 0.055027
0.035489 0.654971 0.055031
0.044141 0.672286 0.054998
0.053272 0.693272 0.055012
0.062670 0.722307 0.054958
0.073408 0.752945 0.054962
0.085549 0.782427 0.055025
0.099436 0.816624 0.055007
0.116709 0.849112 0.055010
0.138325 0.880155 0.055015
0.168118 0.912988 0.054993
0.209879 0.943294 0.055012
0.283930 0.964899 0.054991
0.386833 0.978343 0.055001
0.626795 0.991090 0.054998
1.000000 0.992098 0.054927
0.000000 1.000000 0.054813
0.007912 1.000000 0.054847
0.015826 1.000000 0.055003
0.023494 1.000000 0.055058
0.031163 1.000000 0.055020
0.039244 1.000000 0.054993
0.047889 1.000000 0.054887
0.057049 1.000000 0.054967
0.067703 1.000000 0.054977
0.079562 1.000000 0.055076
0.094002 1.000000 0.054976
0.112360 1.000000 0.055021
0.134503 1.000000 0.055014
0.164380 1.000000 0.055028
0.205393 1.000000 0.054984
0.279188 1.000000 0.054997
0.381583 1.000000 0.054990
0.625554 1.000000 0.055024
1.000000 1.000000 0.054890
0.000000 0.000000 0.109926
0.374416 0.000000 0.109997
0.618486 0.000000 0.110004
0.720837 0.000000 0.109961
0.794626 0.000000 0.110023
0.835575 0.000000 0.109972
0.865423 0.000000 0.110050
0.887675 0.000000 0.110061
0.905955 0.000000 0.109985
0.920446 0.000000 0.110015
0.932285 0.000000 0.110033
0.942932 0.000000 0.110015
0.952049 0.000000 0.109875
0.960632 0.000000 0.109952
0.968732 0.000000 0.109936
0.976442 0.000000 0.109983
0.984127 0.000000 0.109926