# vtk DataFile Version 2.0
Mesh for Fierro
ASCII 
DATASET UNSTRUCTURED_GRID

POINTS 2527 float
0.000000 0.000000 0.000000
0.188111 0.000000 0.000000
0.349325 0.000000 0.000000
0.477582 0.000000 0.000000
0.575206 0.000000 0.000000
0.648589 0.000000 0.000000
0.706270 0.000000 0.000000
0.753018 0.000000 0.000000
0.793123 0.000000 0.000000
0.825105 0.000000 0.000000
0.853218 0.000000 0.000000
0.877386 0.000000 0.000000
0.898657 0.000000 0.000000
0.917969 0.000000 0.000000
0.935476 0.000000 0.000000
0.952665 0.000000 0.000000
0.968912 0.000000 0.000000
0.984565 0.000000 0.000000
1.000000 0.000000 0.000000
0.000000 0.015486 0.000000
0.187102 0.016950 0.000000
0.347205 0.020640 0.000000
0.474667 0.027617 0.000000
0.571671 0.036429 0.000000
0.644485 0.047347 0.000000
0.701751 0.059644 0.000000
0.747626 0.072930 0.000000
0.786830 0.087852 0.000000
0.818529 0.103083 0.000000
0.846038 0.117542 0.000000
0.870492 0.132190 0.000000
0.892011 0.146599 0.000000
0.911990 0.158540 0.000000
0.930719 0.168551 0.000000
0.948610 0.177034 0.000000
0.966081 0.182323 0.000000
0.983063 0.187107 0.000000
1.000000 0.188039 0.000000
0.000000 0.031090 0.000000
0.182314 0.033905 0.000000
0.340261 0.041089 0.000000
0.465394 0.054840 0.000000
0.561357 0.071289 0.000000
0.633266 0.092298 0.000000
0.689971 0.115581 0.000000
0.735282 0.141299 0.000000
0.772673 0.169044 0.000000
0.804340 0.196919 0.000000
0.830837 0.224881 0.000000
0.854896 0.250682 0.000000
0.876764 0.276394 0.000000
0.897704 0.297768 0.000000
0.918179 0.315715 0.000000
0.938588 0.330438 0.000000
0.958913 0.340256 0.000000
0.979350 0.347202 0.000000
1.000000 0.349346 0.000000
0.000000 0.047307 0.000000
0.177028 0.051388 0.000000
0.330440 0.061415 0.000000
0.452472 0.081197 0.000000
0.546021 0.104384 0.000000
0.615199 0.133780 0.000000
0.669819 0.166391 0.000000
0.712874 0.201381 0.000000
0.746982 0.240000 0.000000
0.775949 0.276338 0.000000
0.800731 0.313432 0.000000
0.824834 0.347752 0.000000
0.846433 0.382059 0.000000
0.869628 0.409751 0.000000
0.893350 0.433258 0.000000
0.918798 0.452479 0.000000
0.945162 0.465391 0.000000
0.972385 0.474670 0.000000
1.000000 0.477572 0.000000
0.000000 0.064514 0.000000
0.168585 0.069275 0.000000
0.315708 0.081821 0.000000
0.433262 0.106651 0.000000
0.524902 0.135596 0.000000
0.591132 0.171799 0.000000
0.643930 0.211621 0.000000
0.684504 0.254230 0.000000
0.715357 0.300458 0.000000
0.741355 0.344485 0.000000
0.764954 0.387076 0.000000
0.788936 0.426500 0.000000
0.810536 0.466353 0.000000
0.836634 0.498036 0.000000
0.864404 0.524909 0.000000
0.895616 0.546022 0.000000
0.928709 0.561357 0.000000
0.963569 0.571670 0.000000
1.000000 0.575210 0.000000
0.000000 0.082050 0.000000
0.158562 0.088013 0.000000
0.297754 0.102299 0.000000
0.409749 0.130366 0.000000
0.498029 0.163371 0.000000
0.560753 0.204840 0.000000
0.611323 0.249106 0.000000
0.648453 0.296839 0.000000
0.675039 0.347443 0.000000
0.699730 0.395416 0.000000
0.720661 0.442960 0.000000
0.743572 0.484792 0.000000
0.765476 0.526153 0.000000
0.795158 0.560746 0.000000
0.828201 0.591126 0.000000
0.866220 0.615199 0.000000
0.907705 0.633266 0.000000
0.952652 0.644486 0.000000
1.000000 0.648584 0.000000
0.000000 0.101333 0.000000
0.146641 0.107980 0.000000
0.276392 0.123248 0.000000
0.382071 0.153565 0.000000
0.466342 0.189464 0.000000
0.526145 0.234523 0.000000
0.575257 0.282454 0.000000
0.608102 0.333893 0.000000
0.631064 0.387852 0.000000
0.654262 0.438260 0.000000
0.672773 0.488300 0.000000
0.695349 0.532801 0.000000
0.717543 0.575257 0.000000
0.750900 0.611328 0.000000
0.788381 0.643929 0.000000
0.833610 0.669815 0.000000
0.884413 0.689971 0.000000
0.940361 0.701750 0.000000
1.000000 0.706266 0.000000
0.000000 0.122636 0.000000
0.132213 0.129505 0.000000
0.250697 0.145108 0.000000
0.347758 0.175165 0.000000
0.426498 0.211066 0.000000
0.484801 0.256427 0.000000
0.532795 0.304649 0.000000
0.562237 0.355661 0.000000
0.583611 0.409242 0.000000
0.604559 0.462103 0.000000
0.622498 0.513693 0.000000
0.644331 0.562228 0.000000
0.666113 0.608106 0.000000
0.703158 0.648453 0.000000
0.745771 0.684505 0.000000
0.798619 0.712876 0.000000
0.858701 0.735283 0.000000
0.927070 0.747626 0.000000
1.000000 0.753033 0.000000
0.000000 0.146793 0.000000
0.117552 0.153968 0.000000
0.224878 0.169163 0.000000
0.313437 0.199270 0.000000
0.387070 0.235047 0.000000
0.442959 0.279338 0.000000
0.488292 0.327232 0.000000
0.513698 0.377498 0.000000
0.534430 0.429360 0.000000
0.553060 0.482159 0.000000
0.570652 0.534435 0.000000
0.590752 0.583610 0.000000
0.612148 0.631063 0.000000
0.652561 0.675039 0.000000
0.699540 0.715355 0.000000
0.759998 0.746980 0.000000
0.830953 0.772672 0.000000
0.912146 0.786827 0.000000
1.000000 0.793114 0.000000
0.000000 0.174892 0.000000
0.103071 0.181475 0.000000
0.196917 0.195658 0.000000
0.276335 0.224049 0.000000
0.344487 0.258646 0.000000
0.395416 0.300270 0.000000
0.438262 0.345740 0.000000
0.462110 0.395444 0.000000
0.482145 0.446941 0.000000
0.500003 0.499995 0.000000
0.517842 0.553067 0.000000
0.537892 0.604565 0.000000
0.561739 0.654257 0.000000
0.604583 0.699731 0.000000
0.655515 0.741356 0.000000
0.723666 0.775953 0.000000
0.803083 0.804343 0.000000
0.896914 0.818529 0.000000
1.000000 0.825129 0.000000
0.000000 0.206874 0.000000
0.087857 0.213168 0.000000
0.169047 0.227327 0.000000
0.240002 0.253019 0.000000
0.300458 0.284643 0.000000
0.347440 0.324962 0.000000
0.387848 0.368936 0.000000
0.409252 0.416390 0.000000
0.429351 0.465566 0.000000
0.446942 0.517851 0.000000
0.465565 0.570655 0.000000
0.486303 0.622499 0.000000
0.511702 0.672774 0.000000
0.557049 0.720657 0.000000
0.612921 0.764955 0.000000
0.686568 0.800728 0.000000
0.775134 0.830853 0.000000
0.882468 0.846012 0.000000
1.000000 0.853141 0.000000
0.000000 0.246980 0.000000
0.072925 0.252378 0.000000
0.141297 0.264719 0.000000
0.201381 0.287127 0.000000
0.254228 0.315496 0.000000
0.296841 0.351545 0.000000
0.333889 0.391897 0.000000
0.355665 0.437765 0.000000
0.377505 0.486306 0.000000
0.395436 0.537896 0.000000
0.416391 0.590746 0.000000
0.437769 0.644335 0.000000
0.467198 0.695349 0.000000
0.515201 0.743567 0.000000
0.573506 0.788942 0.000000
0.652233 0.824824 0.000000
0.749305 0.854895 0.000000
0.867807 0.870512 0.000000
1.000000 0.877395 0.000000
0.000000 0.293732 0.000000
0.059646 0.298245 0.000000
0.115590 0.310034 0.000000
0.166384 0.330184 0.000000
0.211635 0.356074 0.000000
0.249102 0.388678 0.000000
0.282457 0.424743 0.000000
0.304649 0.467203 0.000000
0.327224 0.511702 0.000000
0.345740 0.561737 0.000000
0.368936 0.612155 0.000000
0.391896 0.666108 0.000000
0.424744 0.717547 0.000000
0.473854 0.765472 0.000000
0.533641 0.810535 0.000000
0.617925 0.846437 0.000000
0.723611 0.876765 0.000000
0.853347 0.891913 0.000000
1.000000 0.898383 0.000000
0.000000 0.351412 0.000000
0.047347 0.355515 0.000000
0.092295 0.366725 0.000000
0.133787 0.384798 0.000000
0.171786 0.408860 0.000000
0.204842 0.439248 0.000000
0.234525 0.473853 0.000000
0.256429 0.515198 0.000000
0.279342 0.557047 0.000000
0.300270 0.604583 0.000000
0.324962 0.652560 0.000000
0.351544 0.703159 0.000000
0.388681 0.750897 0.000000
0.439247 0.795160 0.000000
0.501979 0.836642 0.000000
0.590251 0.869628 0.000000
0.702266 0.897697 0.000000
0.841426 0.912056 0.000000
1.000000 0.917926 0.000000
0.000000 0.424796 0.000000
0.036426 0.428326 0.000000
0.071296 0.438648 0.000000
0.104376 0.453984 0.000000
0.135610 0.475111 0.000000
0.163363 0.501968 0.000000
0.189465 0.533644 0.000000
0.211063 0.573506 0.000000
0.235044 0.612923 0.000000
0.258645 0.655514 0.000000
0.284642 0.699539 0.000000
0.315498 0.745773 0.000000
0.356072 0.788365 0.000000
0.408859 0.828211 0.000000
0.475107 0.864388 0.000000
0.566725 0.893373 0.000000
0.684318 0.918143 0.000000
0.831376 0.930717 0.000000
1.000000 0.935572 0.000000
0.000000 0.522415 0.000000
0.027622 0.525330 0.000000
0.054830 0.534599 0.000000
0.081205 0.547517 0.000000
0.106627 0.566728 0.000000
0.130379 0.590247 0.000000
0.153555 0.617935 0.000000
0.175174 0.652238 0.000000
0.199271 0.686564 0.000000
0.224050 0.723665 0.000000
0.253020 0.759999 0.000000
0.287125 0.798619 0.000000
0.330186 0.833615 0.000000
0.384800 0.866215 0.000000
0.453983 0.895626 0.000000
0.547520 0.918792 0.000000
0.669576 0.938602 0.000000
0.822936 0.948596 0.000000
1.000000 0.952672 0.000000
0.000000 0.650671 0.000000
0.020623 0.652806 0.000000
0.041096 0.659760 0.000000
0.061405 0.669581 0.000000
0.081852 0.684321 0.000000
0.102295 0.702265 0.000000
0.123236 0.723622 0.000000
0.145110 0.749304 0.000000
0.169157 0.775126 0.000000
0.195658 0.803084 0.000000
0.227325 0.830954 0.000000
0.264719 0.858702 0.000000
0.310031 0.884411 0.000000
0.366727 0.907704 0.000000
0.438646 0.928705 0.000000
0.534598 0.945167 0.000000
0.659758 0.958901 0.000000
0.817612 0.966087 0.000000
1.000000 0.969092 0.000000
0.000000 0.811906 0.000000
0.016948 0.812857 0.000000
0.033901 0.817614 0.000000
0.051406 0.822928 0.000000
0.069281 0.831370 0.000000
0.087948 0.841422 0.000000
0.108091 0.853309 0.000000
0.129490 0.867788 0.000000
0.153983 0.882447 0.000000
0.181471 0.896923 0.000000
0.213172 0.912139 0.000000
0.252377 0.927073 0.000000
0.298248 0.940360 0.000000
0.355515 0.952649 0.000000
0.428327 0.963578 0.000000
0.525331 0.972376 0.000000
0.652804 0.979379 0.000000
0.812864 0.983052 0.000000
1.000000 0.984442 0.000000
0.000000 1.000000 0.000000
0.015536 1.000000 0.000000
0.030862 1.000000 0.000000
0.047311 1.000000 0.000000
0.064446 1.000000 0.000000
0.082132 1.000000 0.000000
0.101633 1.000000 0.000000
0.122614 1.000000 0.000000
0.146862 1.000000 0.000000
0.174871 1.000000 0.000000
0.206892 1.000000 0.000000
0.246967 1.000000 0.000000
0.293742 1.000000 0.000000
0.351413 1.000000 0.000000
0.424794 1.000000 0.000000
0.522418 1.000000 0.000000
0.650656 1.000000 0.000000
0.811949 1.000000 0.000000
1.000000 1.000000 0.000000
0.000000 0.000000 0.054976
0.188110 0.000000 0.054998
0.349316 0.000000 0.055006
0.477588 0.000000 0.054997
0.575198 0.000000 0.055006
[...]
POINT_DATA 2527 
VECTORS pos float 
0.000000 0.000000 0.000000
0.188111 0.000000 0.000000
0.349325 0.000000 0.000000
0.477582 0.000000 0.000000
0.575206 0.000000 0.000000
0.648589 0.000000 0.000000
0.706270 0.000000 0.000000
0.753018 0.000000 0.000000
0.793123 0.000000 0.000000
0.825105 0.000000 0.000000
0.853218 0.000000 0.000000
0.877386 0.000000 0.000000
0.898657 0.000000 0.000000
0.917969 0.000000 0.000000
0.935476 0.000000 0.000000
0.952665 0.000000 0.000000
0.968912 0.000000 0.000000
0.984565 0.000000 0.000000
1.000000 0.000000 0.000000
0.000000 0.015486 0.000000
0.187102 0.016950 0.000000
0.347205 0.020640 0.000000
0.474667 0.027617 0.000000
0.571671 0.036429 0.000000
0.644485 0.047347 0.000000
0.701751 0.059644 0.000000
0.747626 0.072930 0.000000
0.786830 0.087852 0.000000
0.818529 0.103083 0.000000
0.846038 0.117542 0.000000
0.870492 0.132190 0.000000
0.892011 0.146599 0.000000
0.911990 0.158540 0.000000
0.930719 0.168551 0.000000
0.948610 0.177034 0.000000
0.966081 0.182323 0.000000
0.983063 0.187107 0.000000
1.000000 0.188039 0.000000
0.000000 0.031090 0.000000
0.182314 0.033905 0.000000
0.340261 0.041089 0.000000
0.465394 0.054840 0.000000
0.561357 0.071289 0.000000
0.633266 0.092298 0.000000
0.689971 0.115581 0.000000
0.735282 0.141299 0.000000
0.772673 0.169044 0.000000
0.804340 0.196919 0.000000
0.830837 0.224881 0.000000
0.854896 0.250682 0.000000
0.876764 0.276394 0.000000
0.897704 0.297768 0.000000
0.918179 0.315715 0.000000
0.938588 0.330438 0.000000
0.958913 0.340256 0.000000
0.979350 0.347202 0.000000
1.000000 0.349346 0.000000
0.000000 0.047307 0.000000
0.177028 0.051388 0.000000
0.330440 0.061415 0.000000
0.452472 0.081197 0.000000
0.546021 0.104384 0.000000
0.615199 0.133780 0.000000
0.669819 0.166391 0.000000
0.712874 0.201381 0.000000
0.746982 0.240000 0.000000
0.775949 0.276338 0.000000
0.800731 0.313432 0.000000
0.824834 0.347752 0.000000
0.846433 0.382059 0.000000
0.869628 0.409751 0.000000
0.893350 0.433258 0.000000
0.918798 0.452479 0.000000
0.945162 0.465391 0.000000
0.972385 0.474670 0.000000
1.000000 0.477572 0.000000
0.000000 0.064514 0.000000
0.168585 0.069275 0.000000
0.315708 0.081821 0.000000
0.433262 0.106651 0.000000
0.524902 0.135596 0.000000
0.591132 0.171799 0.000000
0.643930 0.211621 0.000000
0.684504 0.254230 0.000000
0.715357 0.300458 0.000000
0.741355 0.344485 0.000000
0.764954 0.387076 0.000000
0.788936 0.426500 0.000000
0.810536 0.466353 0.000000
0.836634 0.498036 0.000000
0.864404 0.524909 0.000000
0.895616 0.546022 0.000000
0.928709 0.561357 0.000000
0.963569 0.571670 0.000000
1.000000 0.575210 0.000000
0.000000 0.082050 0.000000
0.158562 0.088013 0.000000
0.297754 0.102299 0.000000
0.409749 0.130366 0.000000
0.498029 0.163371 0.000000
0.560753 0.204840 0.000000
0.611323 0.249106 0.000000
0.648453 0.296839 0.000000
0.675039 0.347443 0.000000
0.699730 0.395416 0.000000
0.720661 0.442960 0.000000
0.743572 0.484792 0.000000
0.765476 0.526153 0.000000
0.795158 0.560746 0.000000
0.828201 0.591126 0.000000
0.866220 0.615199 0.000000
0.907705 0.633266 0.000000
0.952652 0.644486 0.000000
1.000000 0.648584 0.000000
0.000000 0.101333 0.000000
0.146641 0.107980 0.000000
0.276392 0.123248 0.000000
0.382071 0.153565 0.000000
0.466342 0.189464 0.000000
0.526145 0.234523 0.000000
0.575257 0.282454 0.000000
0.608102 0.333893 0.000000
0.631064 0.387852 0.000000
0.654262 0.438260 0.000000
0.672773 0.488300 0.000000
0.695349 0.532801 0.000000
0.717543 0.575257 0.000000
0.750900 0.611328 0.000000
0.788381 0.643929 0.000000
0.833610 0.669815 0.000000
0.884413 0.689971 0.000000
0.940361 0.701750 0.000000
1.000000 0.706266 0.000000
0.000000 0.122636 0.000000
0.132213 0.129505 0.000000
0.250697 0.145108 0.000000
0.347758 0.175165 0.000000
0.426498 0.211066 0.000000
0.484801 0.256427 0.000000
0.532795 0.304649 0.000000
0.562237 0.355661 0.000000
0.583611 0.409242 0.000000
0.604559 0.462103 0.000000
0.622498 0.513693 0.000000
0.644331 0.562228 0.000000
0.666113 0.608106 0.000000
0.703158 0.648453 0.000000
0.745771 0.684505 0.000000
0.798619 0.712876 0.000000
0.858701 0.735283 0.000000
0.927070 0.747626 0.000000
1.000000 0.753033 0.000000
0.000000 0.146793 0.000000
0.117552 0.153968 0.000000
0.224878 0.169163 0.000000
0.313437 0.199270 0.000000
0.387070 0.235047 0.000000
0.442959 0.279338 0.000000
0.488292 0.327232 0.000000
0.513698 0.377498 0.000000
0.534430 0.429360 0.000000
0.553060 0.482159 0.000000
0.570652 0.534435 0.000000
0.590752 0.583610 0.000000
0.612148 0.631063 0.000000
0.652561 0.675039 0.000000
0.699540 0.715355 0.000000
0.759998 0.746980 0.000000
0.830953 0.772672 0.000000
0.912146 0.786827 0.000000
1.000000 0.793114 0.000000
0.000000 0.174892 0.000000
0.103071 0.181475 0.000000
0.196917 0.195658 0.000000
0.276335 0.224049 0.000000
0.344487 0.258646 0.000000
0.395416 0.300270 0.000000
0.438262 0.345740 0.000000
0.462110 0.395444 0.000000
0.482145 0.446941 0.000000
0.500003 0.499995 0.000000
0.517842 0.553067 0.000000
0.537892 0.604565 0.000000
0.561739 0.654257 0.000000
0.604583 0.699731 0.000000
0.655515 0.741356 0.000000
0.723666 0.775953 0.000000
0.803083 0.804343 0.000000
0.896914 0.818529 0.000000
1.000000 0.825129 0.000000
0.000000 0.206874 0.000000
0.087857 0.213168 0.000000
0.169047 0.227327 0.000000
0.240002 0.253019 0.000000
0.300458 0.284643 0.000000
0.347440 0.324962 0.000000
0.387848 0.368936 0.000000
0.409252 0.416390 0.000000
0.429351 0.465566 0.000000
0.446942 0.517851 0.000000
0.465565 0.570655 0.000000
0.486303 0.622499 0.000000
0.511702 0.672774 0.000000
0.557049 0.720657 0.000000
0.612921 0.764955 0.000000
0.686568 0.800728 0.000000
0.775134 0.830853 0.000000
0.882468 0.846012 0.000000
1.000000 0.853141 0.000000
0.000000 0.246980 0.000000
0.072925 0.252378 0.000000
0.141297 0.264719 0.000000
0.201381 0.287127 0.000000
0.254228 0.315496 0.000000
0.296841 0.351545 0.000000
0.333889 0.391897 0.000000
0.355665 0.437765 0.000000
0.377505 0.486306 0.000000
0.395436 0.537896 0.000000
0.416391 0.590746 0.000000
0.437769 0.644335 0.000000
0.467198 0.695349 0.000000
0.515201 0.743567 0.000000
0.573506 0.788942 0.000000
0.652233 0.824824 0.000000
0.749305 0.854895 0.000000
0.867807 0.870512 0.000000
1.000000 0.877395 0.000000
0.000000 0.293732 0.000000
0.059646 0.298245 0.000000
0.115590 0.310034 0.000000
0.166384 0.330184 0.000000
0.211635 0.356074 0.000000
0.249102 0.388678 0.000000
0.282457 0.424743 0.000000
0.304649 0.467203 0.000000
0.327224 0.511702 0.000000
0.345740 0.561737 0.000000
0.368936 0.612155 0.000000
0.391896 0.666108 0.000000
0.424744 0.717547 0.000000
0.473854 0.765472 0.000000
0.533641 0.810535 0.000000
0.617925 0.846437 0.000000
0.723611 0.876765 0.000000
0.853347 0.891913 0.000000
1.000000 0.898383 0.000000
0.000000 0.351412 0.000000
0.047347 0.355515 0.000000
0.092295 0.366725 0.000000
0.133787 0.384798 0.000000
0.171786 0.408860 0.000000
0.204842 0.439248 0.000000
0.234525 0.473853 0.000000
0.256429 0.515198 0.000000
0.279342 0.557047 0.000000
0.300270 0.604583 0.000000
0.324962 0.652560 0.000000
0.351544 0.703159 0.000000
0.388681 0.750897 0.000000
0.439247 0.795160 0.000000
0.501979 0.836642 0.000000
0.590251 0.869628 0.000000
0.702266 0.897697 0.000000
0.841426 0.912056 0.000000
1.000000 0.917926 0.000000
0.000000 0.424796 0.000000
0.036426 0.428326 0.000000
0.071296 0.438648 0.000000
0.104376 0.453984 0.000000
0.135610 0.475111 0.000000
0.163363 0.501968 0.000000
0.189465 0.533644 0.000000
0.211063 0.573506 0.000000
0.235044 0.612923 0.000000
0.258645 0.655514 0.000000
0.284642 0.699539 0.000000
0.315498 0.745773 0.000000
0.356072 0.788365 0.000000
0.408859 0.828211 0.000000
0.475107 0.864388 0.000000
0.566725 0.893373 0.000000
0.684318 0.918143 0.000000
0.831376 0.930717 0.000000
1.000000 0.935572 0.000000
0.000000 0.522415 0.000000
0.027622 0.525330 0.000000
0.054830 0.534599 0.000000
0.081205 0.547517 0.000000
0.106627 0.566728 0.000000
0.130379 0.590247 0.000000
0.153555 0.617935 0.000000
0.175174 0.652238 0.000000
0.199271 0.686564 0.000000
0.224050 0.723665 0.000000
0.253020 0.759999 0.000000
0.287125 0.798619 0.000000
0.330186 0.833615 0.000000
0.384800 0.866215 0.000000
0.453983 0.895626 0.000000
0.547520 0.918792 0.000000
0.669576 0.938602 0.000000
0.822936 0.948596 0.000000
1.000000 0.952672 0.000000
0.000000 0.650671 0.000000
0.020623 0.652806 0.000000
0.041096 0.659760 0.000000
0.061405 0.669581 0.000000
0.081852 0.684321 0.000000
0.102295 0.702265 0.000000
0.123236 0.723622 0.000000
0.145110 0.749304 0.000000
0.169157 0.775126 0.000000
0.195658 0.803084 0.000000
0.227325 0.830954 0.000000
0.264719 0.858702 0.000000
0.310031 0.884411 0.000000
0.366727 0.907704 0.000000
0.438646 0.928705 0.000000
0.534598 0.945167 0.000000
0.659758 0.958901 0.000000
0.817612 0.966087 0.000000
1.000000 0.969092 0.000000
0.000000 0.811906 0.000000
0.016948 0.812857 0.000000
0.033901 0.817614 0.000000
0.051406 0.822928 0.000000
0.069281 0.831370 0.000000
0.087948 0.841422 0.000000
0.108091 0.853309 0.000000
0.129490 0.867788 0.000000
0.153983 0.882447 0.000000
0.181471 0.896923 0.000000
0.213172 0.912139 0.000000
0.252377 0.927073 0.000000
0.298248 0.940360 0.000000
0.355515 0.952649 0.000000
0.428327 0.963578 0.000000
0.525331 0.972376 0.000000
0.652804 0.979379 0.000000
0.812864 0.983052 0.000000
1.000000 0.984442 0.000000
0.000000 1.000000 0.000000
0.015536 1.000000 0.000000
0.030862 1.000000 0.000000
0.047311 1.000000 0.000000
0.064446 1.000000 0.000000
0.082132 1.000000 0.000000
0.101633 1.000000 0.000000
0.122614 1.000000 0.000000
0.146862 1.000000 0.000000
0.174871 1.000000 0.000000
0.206892 1.000000 0.000000
0.246967 1.000000 0.000000
0.293742 1.000000 0.000000
0.351413 1.000000 0.000000
0.424794 1.000000 0.000000
0.522418 1.000000 0.000000
0.650656 1.000000 0.000000
0.811949 1.000000 0.000000
1.000000 1.000000 0.000000
0.000000 0.000000 0.054976
0.188110 0.000000 0.054998
0.349316 0.000000 0.055006
0.477588 0.000000 0.054997
0.575198 0.000000 0.055006
0.648593 0.000000 0.054999
0.706258 0.000000 0.055004
0.753029 0.000000 0.054996
0.793115 0.000000 0.055004
0.825118 0.000000 0.055003
0.853174 0.000000 0.055005
0.877346 0.000000 0.054970
0.898525 0.000000 0.054983
0.917869 0.000000 0.055020
0.935580 0.000000 0.055060
0.952750 0.000000 0.055019
0.969162 0.000000 0.054999
0.984514 0.000000 0.054950
1.000000 0.000000 0.054952
0.000000 0.015447 0.054982
0.187099 0.016963 0.055003
0.347202 0.020619 0.055001
0.474669 0.027626 0.054999
0.571670 0.036418 0.055000
0.644487 0.047354 0.054998
0.701750 0.059636 0.055003
0.747626 0.072929 0.054999
0.786830 0.087854 0.055000
0.818532 0.103082 0.055000
0.846027 0.117543 0.055003
0.870495 0.132195 0.054999
0.891981 0.146722 0.055000
0.912007 0.158623 0.055001
0.930761 0.168641 0.055008
0.948596 0.177046 0.055007
0.966126 0.182352 0.054996
0.983031 0.187108 0.055002
1.000000 0.188153 0.054990
0.000000 0.030848 0.054996
0.182350 0.033880 0.054999
0.340247 0.041088 0.055000
0.465389 0.054837 0.054999
0.561360 0.071291 0.055001
0.633264 0.092299 0.054999
0.689974 0.115583 0.055001
0.735280 0.141299 0.055000
0.772675 0.169043 0.055000
0.804341 0.196921 0.055000
0.830837 0.224891 0.054999
0.854896 0.250660 0.055003
0.876738 0.276384 0.054997
0.897696 0.297724 0.055002
0.918163 0.315683 0.054999
0.938596 0.330419 0.054999
0.958905 0.340248 0.054995
0.979388 0.347200 0.055001
1.000000 0.349305 0.055007
0.000000 0.047261 0.054965
0.177047 0.051402 0.055005
0.330419 0.061405 0.055000
0.452479 0.081200 0.055000
0.546028 0.104384 0.055000
0.615198 0.133781 0.054999
0.669819 0.166389 0.055001
0.712874 0.201382 0.055000
0.746983 0.239999 0.055000
0.775946 0.276337 0.054999
0.800735 0.313414 0.055003
0.824825 0.347760 0.054998
0.846441 0.382083 0.054998
0.869629 0.409755 0.054998
0.893363 0.433265 0.055001
0.918803 0.452477 0.055001
0.945164 0.465391 0.055002
0.972373 0.474669 0.054999
1.000000 0.477593 0.054999
0.000000 0.064441 0.055006
0.168625 0.069248 0.055007
0.315690 0.081829 0.055000
0.433260 0.106637 0.054999
0.524899 0.135603 0.055001
0.591136 0.171795 0.055000
0.643929 0.211627 0.055000
0.684502 0.254227 0.055000
0.715356 0.300461 0.055000
0.741358 0.344484 0.055001
0.764951 0.387079 0.054999
0.788936 0.426492 0.054999
0.810527 0.466358 0.055000
0.836640 0.498015 0.055005
0.864395 0.524895 0.055001
0.895616 0.546025 0.055001
0.928709 0.561359 0.054997
0.963581 0.571670 0.055000
1.000000 0.575199 0.055003
0.000000 0.082113 0.055017
0.158628 0.087994 0.055003
0.297727 0.102308 0.055004
0.409762 0.130372 0.054999
0.498014 0.163357 0.055004
0.560761 0.204841 0.054995
0.611315 0.249106 0.055004
0.648455 0.296839 0.054999
0.675037 0.347441 0.055001
0.699731 0.395416 0.054999
0.720656 0.442948 0.055001
0.743578 0.484815 0.055000
0.765467 0.526138 0.055000
0.795159 0.560762 0.054997
0.828206 0.591139 0.055000
0.866220 0.615200 0.055000
0.907699 0.633265 0.055001
0.952647 0.644487 0.054998
1.000000 0.648590 0.055002
0.000000 0.101433 0.054995
0.146702 0.108015 0.055003
0.276369 0.123259 0.055001
0.382085 0.153557 0.055001
0.466361 0.189477 0.055004
0.526149 0.234529 0.054998
0.575247 0.282455 0.055003
0.608102 0.333891 0.054999
0.631066 0.387850 0.055001
0.654258 0.438265 0.054999
0.672777 0.488306 0.055000
0.695347 0.532793 0.054999
0.717549 0.575247 0.055002
0.750891 0.611317 0.055002
0.788372 0.643928 0.054998
0.833608 0.669819 0.055000
0.884421 0.689974 0.054998
0.940362 0.701749 0.055002
1.000000 0.706272 0.054992
0.000000 0.122651 0.054975
0.132192 0.129509 0.054999
0.250666 0.145106 0.055001
0.347759 0.175172 0.055001
0.426487 0.211063 0.055000
0.484810 0.256425 0.055000
0.532793 0.304649 0.055000
0.562237 0.355660 0.055000
0.583610 0.409247 0.055000
0.604566 0.462097 0.055001
0.622502 0.513691 0.055000
0.644337 0.562235 0.055000
0.666109 0.608105 0.054999
0.703162 0.648453 0.055000
0.745772 0.684502 0.055001
0.798619 0.712874 0.055000
0.858700 0.735280 0.055001
0.927070 0.747627 0.054999
1.000000 0.753022 0.055005
0.000000 0.146824 0.054997
0.117534 0.153970 0.054999
0.224885 0.169165 0.054998
0.313423 0.199266 0.054999
0.387076 0.235051 0.055003
0.442950 0.279345 0.054998
0.488301 0.327225 0.055002
0.513694 0.377499 0.055000
0.534433 0.429351 0.055001
0.553066 0.482154 0.054999
0.570651 0.534436 0.055000
0.590754 0.583610 0.055000
0.612151 0.631063 0.055000
0.652557 0.675039 0.055000
0.699541 0.715357 0.054999
0.759999 0.746982 0.055001
0.830957 0.772675 0.054998
0.912146 0.786828 0.055001
1.000000 0.793121 0.054994
0.000000 0.174885 0.055003
0.103085 0.181470 0.055003
0.196920 0.195657 0.055001
0.276338 0.224051 0.054998
0.344482 0.258644 0.055000
0.395418 0.300268 0.055001
0.438261 0.345744 0.054999
0.462104 0.395436 0.055000
0.482150 0.446931 0.055000
0.499999 0.500002 0.055000
0.517847 0.553065 0.055000
0.537898 0.604568 0.055000
0.561737 0.654258 0.054999
0.604585 0.699730 0.055000
0.655513 0.741355 0.055001
0.723664 0.775949 0.054999
0.803080 0.804339 0.055003
0.896912 0.818539 0.055000
1.000000 0.825140 0.054993
0.000000 0.206885 0.055003
0.087849 0.213169 0.055000
0.169045 0.227328 0.055000
0.239999 0.253017 0.055001
0.300463 0.284644 0.055000
0.347439 0.324964 0.054999
0.387849 0.368935 0.055000
0.409248 0.416388 0.055000
0.429347 0.465565 0.055000
0.446938 0.517849 0.055000
0.465567 0.570648 0.055001
0.486305 0.622506 0.055000
0.511697 0.672772 0.055001
0.557048 0.720659 0.054999
0.612918 0.764957 0.055000
0.686584 0.800733 0.054998
0.775119 0.830845 0.054992
0.882466 0.846028 0.055005
1.000000 0.853202 0.055019
0.000000 0.246973 0.054997
0.072929 0.252374 0.054999
0.141300 0.264715 0.055000
0.201384 0.287126 0.054999
0.254226 0.315497 0.055000
0.296841 0.351543 0.055001
0.333891 0.391898 0.055000
0.355663 0.437764 0.055000
0.377498 0.486306 0.055000
0.395434 0.537898 0.055000
0.416388 0.590754 0.055000
0.437764 0.644340 0.055000
0.467205 0.695351 0.054999
0.515200 0.743571 0.055001
0.573499 0.788937 0.055000
0.652239 0.824825 0.055004
0.749332 0.854907 0.054994
0.867812 0.870486 0.054998
1.000000 0.877321 0.055033
0.000000 0.293740 0.055004
0.059645 0.298250 0.055004
0.115577 0.310035 0.055001
0.166382 0.330178 0.055002
0.211629 0.356069 0.055001
0.249106 0.388679 0.054999
0.282448 0.424742 0.054998
0.304647 0.467205 0.055000
0.327225 0.511697 0.055001
0.345740 0.561737 0.054999
0.368939 0.612152 0.055000
0.391896 0.666105 0.055001
0.424744 0.717551 0.054996
0.473855 0.765472 0.055002
0.533646 0.810548 0.054999
0.617944 0.846435 0.055004
0.723613 0.876750 0.054998
0.853344 0.892001 0.055002
1.000000 0.898572 0.054988
0.000000 0.351412 0.054999
0.047347 0.355515 0.054997
0.092304 0.366732 0.054999
0.133786 0.384804 0.054998
0.171795 0.408862 0.055000
0.204838 0.439246 0.055001
0.234532 0.473863 0.055001
0.256426 0.515193 0.055001
0.279343 0.557049 0.054998
0.300270 0.604584 0.055001
0.324961 0.652559 0.055000
0.351545 0.703158 0.055001
0.388678 0.750896 0.055000
0.439247 0.795162 0.055000
0.501962 0.836626 0.054999
0.590255 0.869630 0.055001
0.702236 0.897706 0.054998
0.841461 0.912001 0.054998
1.000000 0.917889 0.054975
0.000000 0.424800 0.055004
0.036427 0.428321 0.055002
0.071284 0.438649 0.055002
0.104379 0.453971 0.055000
0.135601 0.475107 0.055001
0.163371 0.501963 0.054997
0.189452 0.533644 0.054998
0.211063 0.573499 0.055001
0.235044 0.612923 0.055001
0.258644 0.655513 0.055000
0.284644 0.699541 0.054999
0.315497 0.745772 0.055001
0.356070 0.788371 0.054998
0.408864 0.828208 0.055000
0.475106 0.864398 0.055001
0.566735 0.893362 0.054999
0.684305 0.918156 0.055002
0.831404 0.930741 0.054991
1.000000 0.935586 0.055006
0.000000 0.522404 0.054996
0.027623 0.525336 0.054997
0.054838 0.534602 0.055000
0.081200 0.547530 0.054999
0.106639 0.566733 0.055000
0.130372 0.590261 0.055001
0.153565 0.617944 0.055001
0.175174 0.652237 0.055003
0.199268 0.686580 0.054998
0.224051 0.723664 0.054999
0.253019 0.759999 0.055001
0.287126 0.798618 0.054999
0.330180 0.833614 0.055002
0.384804 0.866217 0.054997
0.453971 0.895617 0.055002
0.547527 0.918804 0.054999
0.669557 0.938594 0.055004
0.822987 0.948611 0.055004
1.000000 0.952784 0.055044
0.000000 0.650688 0.055008
0.020607 0.652792 0.055001
0.041102 0.659735 0.055001
0.061400 0.669552 0.055004
0.081846 0.684305 0.055003
0.102288 0.702238 0.054997
0.123245 0.723603 0.055004
0.145097 0.749324 0.055000
0.169158 0.775122 0.054997
0.195661 0.803082 0.055002
0.227325 0.830956 0.054999
0.264718 0.858700 0.055000
0.310031 0.884423 0.055001
0.366731 0.907694 0.055000
0.438649 0.928719 0.055001
0.534603 0.945159 0.055001
0.659740 0.958904 0.054999
0.817672 0.966097 0.054999
1.000000 0.969069 0.055047
0.000000 0.811837 0.054989
0.016960 0.812896 0.055004
0.033908 0.817689 0.055000
0.051387 0.823008 0.055004
0.069257 0.831403 0.054990
0.087992 0.841465 0.055002
0.108010 0.853320 0.055008
0.129511 0.867810 0.054993
0.153969 0.882463 0.054998
0.181461 0.896916 0.055002
0.213171 0.912143 0.055000
0.252374 0.927072 0.054999
0.298251 0.940358 0.055003
0.355515 0.952649 0.054998
0.428321 0.963577 0.055001
0.525335 0.972373 0.054998
0.652792 0.979395 0.055001
0.812897 0.983036 0.055004
1.000000 0.984512 0.054945
0.000000 1.000000 0.054868
0.015498 1.000000 0.054925
0.030944 1.000000 0.055058
0.047231 1.000000 0.055053
0.064406 1.000000 0.055014
0.082092 1.000000 0.054988
0.101447 1.000000 0.054979
0.122668 1.000000 0.055003
0.146792 1.000000 0.055003
0.174862 1.000000 0.055002
0.206877 1.000000 0.054996
0.246978 1.000000 0.055005
0.293730 1.000000 0.054992
0.351414 1.000000 0.055004
0.424799 1.000000 0.055001
0.522409 1.000000 0.054999
0.650679 1.000000 0.055004
0.811868 1.000000 0.054986
1.000000 1.000000 0.054925
0.000000 0.000000 0.110068
0.188113 0.000000 0.110000
0.349328 0.000000 0.110002
0.477590 0.000000 0.110002
0.575206 0.000000 0.110000
0.648582 0.000000 0.109999
0.706280 0.000000 0.110001
0.753014 0.000000 0.110000
0.793130 0.000000 0.110001
0.825133 0.000000 0.110000
0.853204 0.000000 0.110020
0.877328 0.000000 0.110020
0.898575 0.000000 0.109974
0.917907 0.000000 0.109958
0.935592 0.000000 0.109914
0.952754 0.000000 0.109954
0.968992 0.000000 0.109994