# vtk DataFile Version 2.0
Mesh for Fierro
ASCII 
DATASET UNSTRUCTURED_GRID

POINTS 2527 float
0.000000 0.000000 0.000000
0.090920 0.000000 0.000000
0.178971 0.000000 0.000000
0.263943 0.000000 0.000000
0.344357 0.000000 0.000000
0.418142 0.000000 0.000000
0.486056 0.000000 0.000000
0.547274 0.000000 0.000000
0.603464 0.000000 0.000000
0.653783 0.000000 0.000000
0.700737 0.000000 0.000000
0.744461 0.000000 0.000000
0.785534 0.000000 0.000000
0.824838 0.000000 0.000000
0.862357 0.000000 0.000000
0.898174 0.000000 0.000000
0.932771 0.000000 0.000000
0.966829 0.000000 0.000000
1.000000 0.000000 0.000000
0.000000 0.033171 0.000000
0.090482 0.033685 0.000000
0.178197 0.034809 0.000000
0.262797 0.036910 0.000000
0.342868 0.039667 0.000000
0.416498 0.043364 0.000000
0.484308 0.047423 0.000000
0.545134 0.052090 0.000000
0.601300 0.057186 0.000000
0.651564 0.061974 0.000000
0.698415 0.066943 0.000000
0.742252 0.071804 0.000000
0.783364 0.076452 0.000000
0.822686 0.080562 0.000000
0.860461 0.084125 0.000000
0.896673 0.086990 0.000000
0.931796 0.089119 0.000000
0.966315 0.090482 0.000000
1.000000 0.090920 0.000000
0.000000 0.067229 0.000000
0.089119 0.068204 0.000000
0.175455 0.070514 0.000000
0.258885 0.074633 0.000000
0.337916 0.080043 0.000000
0.410950 0.087105 0.000000
0.478341 0.094851 0.000000
0.538581 0.103907 0.000000
0.594154 0.113527 0.000000
0.644504 0.122884 0.000000
0.691340 0.132489 0.000000
0.735624 0.141744 0.000000
0.777273 0.151067 0.000000
0.817355 0.158947 0.000000
0.855984 0.165746 0.000000
0.893181 0.171383 0.000000
0.929486 0.175455 0.000000
0.965191 0.178197 0.000000
1.000000 0.178971 0.000000
0.000000 0.101826 0.000000
0.086990 0.103327 0.000000
0.171383 0.106819 0.000000
0.252883 0.112997 0.000000
0.330110 0.120783 0.000000
0.402061 0.130760 0.000000
0.468686 0.142066 0.000000
0.527751 0.155204 0.000000
0.582869 0.169035 0.000000
0.632902 0.182576 0.000000
0.679774 0.196509 0.000000
0.724637 0.209903 0.000000
0.766813 0.223351 0.000000
0.808048 0.234834 0.000000
0.847989 0.244720 0.000000
0.887003 0.252883 0.000000
0.925367 0.258885 0.000000
0.963089 0.262797 0.000000
1.000000 0.263943 0.000000
0.000000 0.137643 0.000000
0.084125 0.139539 0.000000
0.165746 0.144016 0.000000
0.244720 0.152011 0.000000
0.319911 0.162407 0.000000
0.389935 0.175235 0.000000
0.455037 0.189838 0.000000
0.512875 0.206344 0.000000
0.567099 0.223624 0.000000
0.617008 0.241292 0.000000
0.664155 0.258521 0.000000
0.709704 0.275654 0.000000
0.752806 0.292862 0.000000
0.795903 0.307476 0.000000
0.837593 0.319911 0.000000
0.879217 0.330110 0.000000
0.919957 0.337916 0.000000
0.960333 0.342868 0.000000
1.000000 0.344357 0.000000
0.000000 0.175162 0.000000
0.080562 0.177314 0.000000
0.158947 0.182645 0.000000
0.234834 0.191952 0.000000
0.307476 0.204097 0.000000
0.375510 0.219524 0.000000
0.438875 0.236702 0.000000
0.495342 0.256532 0.000000
0.548203 0.277388 0.000000
0.598148 0.298028 0.000000
0.645488 0.319088 0.000000
0.691208 0.338939 0.000000
0.735165 0.358380 0.000000
0.780476 0.375510 0.000000
0.824765 0.389935 0.000000
0.869240 0.402061 0.000000
0.912895 0.410950 0.000000
0.956635 0.416498 0.000000
1.000000 0.418142 0.000000
0.000000 0.214466 0.000000
0.076452 0.216636 0.000000
0.151067 0.222727 0.000000
0.223351 0.233187 0.000000
0.292862 0.247194 0.000000
0.358380 0.264835 0.000000
0.420584 0.284290 0.000000
0.475059 0.306365 0.000000
0.526537 0.330181 0.000000
0.576378 0.352930 0.000000
0.623988 0.376852 0.000000
0.670496 0.399576 0.000000
0.715710 0.420584 0.000000
0.763298 0.438875 0.000000
0.810162 0.455037 0.000000
0.857934 0.468686 0.000000
0.905149 0.478341 0.000000
0.952577 0.484308 0.000000
1.000000 0.486056 0.000000
0.000000 0.255539 0.000000
0.071804 0.257748 0.000000
0.141744 0.264376 0.000000
0.209903 0.275363 0.000000
0.275654 0.290296 0.000000
0.338939 0.308792 0.000000
0.399576 0.329504 0.000000
0.452004 0.353028 0.000000
0.502286 0.377737 0.000000
0.552119 0.402585 0.000000
0.599782 0.427434 0.000000
0.646972 0.452004 0.000000
0.693635 0.475059 0.000000
0.743468 0.495342 0.000000
0.793656 0.512875 0.000000
0.844796 0.527751 0.000000
0.896093 0.538581 0.000000
0.947910 0.545133 0.000000
1.000000 0.547274 0.000000
0.000000 0.299263 0.000000
0.066943 0.301585 0.000000
0.132489 0.308660 0.000000
0.196509 0.320226 0.000000
0.258521 0.335845 0.000000
0.319088 0.354512 0.000000
0.376852 0.376012 0.000000
0.427434 0.400218 0.000000
0.477139 0.425101 0.000000
0.526219 0.451044 0.000000
0.574899 0.477139 0.000000
0.622263 0.502286 0.000000
0.669819 0.526537 0.000000
0.722612 0.548203 0.000000
0.776376 0.567099 0.000000
0.830965 0.582869 0.000000
0.886473 0.594154 0.000000
0.942814 0.601300 0.000000
1.000000 0.603464 0.000000
0.000000 0.346217 0.000000
0.061974 0.348436 0.000000
0.122884 0.355496 0.000000
0.182576 0.367098 0.000000
0.241292 0.382992 0.000000
0.298028 0.401852 0.000000
0.352930 0.423622 0.000000
0.402585 0.447881 0.000000
0.451044 0.473781 0.000000
0.500000 0.500000 0.000000
0.548956 0.526219 0.000000
0.597415 0.552119 0.000000
0.647070 0.576378 0.000000
0.701972 0.598148 0.000000
0.758708 0.617008 0.000000
0.817424 0.632902 0.000000
0.877116 0.644504 0.000000
0.938026 0.651564 0.000000
1.000000 0.653783 0.000000
0.000000 0.396536 0.000000
0.057186 0.398700 0.000000
0.113527 0.405846 0.000000
0.169035 0.417131 0.000000
0.223624 0.432901 0.000000
0.277388 0.451797 0.000000
0.330181 0.473463 0.000000
0.377737 0.497714 0.000000
0.425101 0.522861 0.000000
0.473781 0.548956 0.000000
0.522861 0.574899 0.000000
0.572566 0.599782 0.000000
0.623148 0.623988 0.000000
0.680912 0.645488 0.000000
0.741479 0.664155 0.000000
0.803491 0.679774 0.000000
0.867511 0.691340 0.000000
0.933057 0.698415 0.000000
1.000000 0.700737 0.000000
0.000000 0.452726 0.000000
0.052090 0.454866 0.000000
0.103907 0.461419 0.000000
0.155204 0.472249 0.000000
0.206344 0.487125 0.000000
0.256532 0.504658 0.000000
0.306365 0.524941 0.000000
0.353028 0.547996 0.000000
0.400218 0.572566 0.000000
0.447881 0.597415 0.000000
0.497714 0.622263 0.000000
0.547996 0.646972 0.000000
0.600424 0.670496 0.000000
0.661061 0.691208 0.000000
0.724346 0.709704 0.000000
0.790097 0.724637 0.000000
0.858256 0.735624 0.000000
0.928195 0.742252 0.000000
1.000000 0.744461 0.000000
0.000000 0.513944 0.000000
0.047423 0.515692 0.000000
0.094851 0.521659 0.000000
0.142066 0.531314 0.000000
0.189838 0.544963 0.000000
0.236702 0.561125 0.000000
0.284290 0.579416 0.000000
0.329504 0.600424 0.000000
0.376012 0.623148 0.000000
0.423622 0.647070 0.000000
0.473463 0.669819 0.000000
0.524941 0.693635 0.000000
0.579416 0.715710 0.000000
0.641620 0.735165 0.000000
0.707138 0.752806 0.000000
0.776649 0.766813 0.000000
0.848933 0.777273 0.000000
0.923548 0.783364 0.000000
1.000000 0.785534 0.000000
0.000000 0.581858 0.000000
0.043364 0.583502 0.000000
0.087105 0.589050 0.000000
0.130760 0.597939 0.000000
0.175235 0.610065 0.000000
0.219524 0.624490 0.000000
0.264835 0.641620 0.000000
0.308792 0.661061 0.000000
0.354512 0.680912 0.000000
0.401852 0.701972 0.000000
0.451797 0.722612 0.000000
0.504658 0.743468 0.000000
0.561125 0.763298 0.000000
0.624490 0.780476 0.000000
0.692524 0.795903 0.000000
0.765166 0.808048 0.000000
0.841053 0.817355 0.000000
0.919437 0.822686 0.000000
1.000000 0.824838 0.000000
0.000000 0.655643 0.000000
0.039667 0.657132 0.000000
0.080043 0.662084 0.000000
0.120783 0.669890 0.000000
0.162407 0.680089 0.000000
0.204097 0.692524 0.000000
0.247194 0.707138 0.000000
0.290296 0.724346 0.000000
0.335845 0.741479 0.000000
0.382992 0.758708 0.000000
0.432901 0.776376 0.000000
0.487125 0.793656 0.000000
0.544963 0.810162 0.000000
0.610065 0.824765 0.000000
0.680089 0.837593 0.000000
0.755280 0.847989 0.000000
0.834254 0.855984 0.000000
0.915874 0.860461 0.000000
1.000000 0.862357 0.000000
0.000000 0.736057 0.000000
0.036910 0.737203 0.000000
0.074633 0.741115 0.000000
0.112997 0.747117 0.000000
0.152011 0.755280 0.000000
0.191952 0.765166 0.000000
0.233187 0.776649 0.000000
0.275363 0.790097 0.000000
0.320226 0.803491 0.000000
0.367098 0.817424 0.000000
0.417131 0.830965 0.000000
0.472249 0.844796 0.000000
0.531314 0.857934 0.000000
0.597939 0.869240 0.000000
0.669890 0.879217 0.000000
0.747117 0.887003 0.000000
0.828617 0.893181 0.000000
0.913010 0.896673 0.000000
1.000000 0.898174 0.000000
0.000000 0.821029 0.000000
0.034809 0.821803 0.000000
0.070514 0.824545 0.000000
0.106819 0.828617 0.000000
0.144016 0.834254 0.000000
0.182645 0.841053 0.000000
0.222727 0.848933 0.000000
0.264376 0.858256 0.000000
0.308660 0.867511 0.000000
0.355496 0.877116 0.000000
0.405846 0.886473 0.000000
0.461419 0.896093 0.000000
0.521659 0.905149 0.000000
0.589050 0.912895 0.000000
0.662084 0.919957 0.000000
0.741115 0.925367 0.000000
0.824545 0.929486 0.000000
0.910881 0.931796 0.000000
1.000000 0.932771 0.000000
0.000000 0.909079 0.000000
0.033685 0.909517 0.000000
0.068204 0.910881 0.000000
0.103327 0.913010 0.000000
0.139539 0.915874 0.000000
0.177314 0.919437 0.000000
0.216636 0.923548 0.000000
0.257748 0.928195 0.000000
0.301585 0.933057 0.000000
0.348436 0.938026 0.000000
0.398700 0.942814 0.000000
0.454867 0.947910 0.000000
0.515692 0.952577 0.000000
0.583502 0.956635 0.000000
0.657132 0.960333 0.000000
0.737203 0.963089 0.000000
0.821803 0.965191 0.000000
0.909517 0.966315 0.000000
1.000000 0.966829 0.000000
0.000000 1.000000 0.000000
0.033171 1.000000 0.000000
0.067229 1.000000 0.000000
0.101826 1.000000 0.000000
0.137643 1.000000 0.000000
0.175162 1.000000 0.000000
0.214466 1.000000 0.000000
0.255539 1.000000 0.000000
0.299263 1.000000 0.000000
0.346217 1.000000 0.000000
0.396536 1.000000 0.000000
0.452726 1.000000 0.000000
0.513944 1.000000 0.000000
0.581858 1.000000 0.000000
0.655643 1.000000 0.000000
0.736057 1.000000 0.000000
0.821029 1.000000 0.000000
0.909079 1.000000 0.000000
1.000000 1.000000 0.000000
0.000000 0.000000 0.055000
0.090920 0.000000 0.055000
0.178971 0.000000 0.055000
0.263943 0.000000 0.055000
0.344357 0.000000 0.055000
[...]
POINT_DATA 2527 
VECTORS pos float 
0.000000 0.000000 0.000000
0.090920 0.000000 0.000000
0.178971 0.000000 0.000000
0.263943 0.000000 0.000000
0.344357 0.000000 0.000000
0.418142 0.000000 0.000000
0.486056 0.000000 0.000000
0.547274 0.000000 0.000000
0.603464 0.000000 0.000000
0.653783 0.000000 0.000000
0.700737 0.000000 0.000000
0.744461 0.000000 0.000000
0.785534 0.000000 0.000000
0.824838 0.000000 0.000000
0.862357 0.000000 0.000000
0.898174 0.000000 0.000000
0.932771 0.000000 0.000000
0.966829 0.000000 0.000000
1.000000 0.000000 0.000000
0.000000 0.033171 0.000000
0.090482 0.033685 0.000000
0.178197 0.034809 0.000000
0.262797 0.036910 0.000000
0.342868 0.039667 0.000000
0.416498 0.043364 0.000000
0.484308 0.047423 0.000000
0.545134 0.052090 0.000000
0.601300 0.057186 0.000000
0.651564 0.061974 0.000000
0.698415 0.066943 0.000000
0.742252 0.071804 0.000000
0.783364 0.076452 0.000000
0.822686 0.080562 0.000000
0.860461 0.084125 0.000000
0.896673 0.086990 0.000000
0.931796 0.089119 0.000000
0.966315 0.090482 0.000000
1.000000 0.090920 0.000000
0.000000 0.067229 0.000000
0.089119 0.068204 0.000000
0.175455 0.070514 0.000000
0.258885 0.074633 0.000000
0.337916 0.080043 0.000000
0.410950 0.087105 0.000000
0.478341 0.094851 0.000000
0.538581 0.103907 0.000000
0.594154 0.113527 0.000000
0.644504 0.122884 0.000000
0.691340 0.132489 0.000000
0.735624 0.141744 0.000000
0.777273 0.151067 0.000000
0.817355 0.158947 0.000000
0.855984 0.165746 0.000000
0.893181 0.171383 0.000000
0.929486 0.175455 0.000000
0.965191 0.178197 0.000000
1.000000 0.178971 0.000000
0.000000 0.101826 0.000000
0.086990 0.103327 0.000000
0.171383 0.106819 0.000000
0.252883 0.112997 0.000000
0.330110 0.120783 0.000000
0.402061 0.130760 0.000000
0.468686 0.142066 0.000000
0.527751 0.155204 0.000000
0.582869 0.169035 0.000000
0.632902 0.182576 0.000000
0.679774 0.196509 0.000000
0.724637 0.209903 0.000000
0.766813 0.223351 0.000000
0.808048 0.234834 0.000000
0.847989 0.244720 0.000000
0.887003 0.252883 0.000000
0.925367 0.258885 0.000000
0.963089 0.262797 0.000000
1.000000 0.263943 0.000000
0.000000 0.137643 0.000000
0.084125 0.139539 0.000000
0.165746 0.144016 0.000000
0.244720 0.152011 0.000000
0.319911 0.162407 0.000000
0.389935 0.175235 0.000000
0.455037 0.189838 0.000000
0.512875 0.206344 0.000000
0.567099 0.223624 0.000000
0.617008 0.241292 0.000000
0.664155 0.258521 0.000000
0.709704 0.275654 0.000000
0.752806 0.292862 0.000000
0.795903 0.307476 0.000000
0.837593 0.319911 0.000000
0.879217 0.330110 0.000000
0.919957 0.337916 0.000000
0.960333 0.342868 0.000000
1.000000 0.344357 0.000000
0.000000 0.175162 0.000000
0.080562 0.177314 0.000000
0.158947 0.182645 0.000000
0.234834 0.191952 0.000000
0.307476 0.204097 0.000000
0.375510 0.219524 0.000000
0.438875 0.236702 0.000000
0.495342 0.256532 0.000000
0.548203 0.277388 0.000000
0.598148 0.298028 0.000000
0.645488 0.319088 0.000000
0.691208 0.338939 0.000000
0.735165 0.358380 0.000000
0.780476 0.375510 0.000000
0.824765 0.389935 0.000000
0.869240 0.402061 0.000000
0.912895 0.410950 0.000000
0.956635 0.416498 0.000000
1.000000 0.418142 0.000000
0.000000 0.214466 0.000000
0.076452 0.216636 0.000000
0.151067 0.222727 0.000000
0.223351 0.233187 0.000000
0.292862 0.247194 0.000000
0.358380 0.264835 0.000000
0.420584 0.284290 0.000000
0.475059 0.306365 0.000000
0.526537 0.330181 0.000000
0.576378 0.352930 0.000000
0.623988 0.376852 0.000000
0.670496 0.399576 0.000000
0.715710 0.420584 0.000000
0.763298 0.438875 0.000000
0.810162 0.455037 0.000000
0.857934 0.468686 0.000000
0.905149 0.478341 0.000000
0.952577 0.484308 0.000000
1.000000 0.486056 0.000000
0.000000 0.255539 0.000000
0.071804 0.257748 0.000000
0.141744 0.264376 0.000000
0.209903 0.275363 0.000000
0.275654 0.290296 0.000000
0.338939 0.308792 0.000000
0.399576 0.329504 0.000000
0.452004 0.353028 0.000000
0.502286 0.377737 0.000000
0.552119 0.402585 0.000000
0.599782 0.427434 0.000000
0.646972 0.452004 0.000000
0.693635 0.475059 0.000000
0.743468 0.495342 0.000000
0.793656 0.512875 0.000000
0.844796 0.527751 0.000000
0.896093 0.538581 0.000000
0.947910 0.545133 0.000000
1.000000 0.547274 0.000000
0.000000 0.299263 0.000000
0.066943 0.301585 0.000000
0.132489 0.308660 0.000000
0.196509 0.320226 0.000000
0.258521 0.335845 0.000000
0.319088 0.354512 0.000000
0.376852 0.376012 0.000000
0.427434 0.400218 0.000000
0.477139 0.425101 0.000000
0.526219 0.451044 0.000000
0.574899 0.477139 0.000000
0.622263 0.502286 0.000000
0.669819 0.526537 0.000000
0.722612 0.548203 0.000000
0.776376 0.567099 0.000000
0.830965 0.582869 0.000000
0.886473 0.594154 0.000000
0.942814 0.601300 0.000000
1.000000 0.603464 0.000000
0.000000 0.346217 0.000000
0.061974 0.348436 0.000000
0.122884 0.355496 0.000000
0.182576 0.367098 0.000000
0.241292 0.382992 0.000000
0.298028 0.401852 0.000000
0.352930 0.423622 0.000000
0.402585 0.447881 0.000000
0.451044 0.473781 0.000000
0.500000 0.500000 0.000000
0.548956 0.526219 0.000000
0.597415 0.552119 0.000000
0.647070 0.576378 0.000000
0.701972 0.598148 0.000000
0.758708 0.617008 0.000000
0.817424 0.632902 0.000000
0.877116 0.644504 0.000000
0.938026 0.651564 0.000000
1.000000 0.653783 0.000000
0.000000 0.396536 0.000000
0.057186 0.398700 0.000000
0.113527 0.405846 0.000000
0.169035 0.417131 0.000000
0.223624 0.432901 0.000000
0.277388 0.451797 0.000000
0.330181 0.473463 0.000000
0.377737 0.497714 0.000000
0.425101 0.522861 0.000000
0.473781 0.548956 0.000000
0.522861 0.574899 0.000000
0.572566 0.599782 0.000000
0.623148 0.623988 0.000000
0.680912 0.645488 0.000000
0.741479 0.664155 0.000000
0.803491 0.679774 0.000000
0.867511 0.691340 0.000000
0.933057 0.698415 0.000000
1.000000 0.700737 0.000000
0.000000 0.452726 0.000000
0.052090 0.454866 0.000000
0.103907 0.461419 0.000000
0.155204 0.472249 0.000000
0.206344 0.487125 0.000000
0.256532 0.504658 0.000000
0.306365 0.524941 0.000000
0.353028 0.547996 0.000000
0.400218 0.572566 0.000000
0.447881 0.597415 0.000000
0.497714 0.622263 0.000000
0.547996 0.646972 0.000000
0.600424 0.670496 0.000000
0.661061 0.691208 0.000000
0.724346 0.709704 0.000000
0.790097 0.724637 0.000000
0.858256 0.735624 0.000000
0.928195 0.742252 0.000000
1.000000 0.744461 0.000000
0.000000 0.513944 0.000000
0.047423 0.515692 0.000000
0.094851 0.521659 0.000000
0.142066 0.531314 0.000000
0.189838 0.544963 0.000000
0.236702 0.561125 0.000000
0.284290 0.579416 0.000000
0.329504 0.600424 0.000000
0.376012 0.623148 0.000000
0.423622 0.647070 0.000000
0.473463 0.669819 0.000000
0.524941 0.693635 0.000000
0.579416 0.715710 0.000000
0.641620 0.735165 0.000000
0.707138 0.752806 0.000000
0.776649 0.766813 0.000000
0.848933 0.777273 0.000000
0.923548 0.783364 0.000000
1.000000 0.785534 0.000000
0.000000 0.581858 0.000000
0.043364 0.583502 0.000000
0.087105 0.589050 0.000000
0.130760 0.597939 0.000000
0.175235 0.610065 0.000000
0.219524 0.624490 0.000000
0.264835 0.641620 0.000000
0.308792 0.661061 0.000000
0.354512 0.680912 0.000000
0.401852 0.701972 0.000000
0.451797 0.722612 0.000000
0.504658 0.743468 0.000000
0.561125 0.763298 0.000000
0.624490 0.780476 0.000000
0.692524 0.795903 0.000000
0.765166 0.808048 0.000000
0.841053 0.817355 0.000000
0.919437 0.822686 0.000000
1.000000 0.824838 0.000000
0.000000 0.655643 0.000000
0.039667 0.657132 0.000000
0.080043 0.662084 0.000000
0.120783 0.669890 0.000000
0.162407 0.680089 0.000000
0.204097 0.692524 0.000000
0.247194 0.707138 0.000000
0.290296 0.724346 0.000000
0.335845 0.741479 0.000000
0.382992 0.758708 0.000000
0.432901 0.776376 0.000000
0.487125 0.793656 0.000000
0.544963 0.810162 0.000000
0.610065 0.824765 0.000000
0.680089 0.837593 0.000000
0.755280 0.847989 0.000000
0.834254 0.855984 0.000000
0.915874 0.860461 0.000000
1.000000 0.862357 0.000000
0.000000 0.736057 0.000000
0.036910 0.737203 0.000000
0.074633 0.741115 0.000000
0.112997 0.747117 0.000000
0.152011 0.755280 0.000000
0.191952 0.765166 0.000000
0.233187 0.776649 0.000000
0.275363 0.790097 0.000000
0.320226 0.803491 0.000000
0.367098 0.817424 0.000000
0.417131 0.830965 0.000000
0.472249 0.844796 0.000000
0.531314 0.857934 0.000000
0.597939 0.869240 0.000000
0.669890 0.879217 0.000000
0.747117 0.887003 0.000000
0.828617 0.893181 0.000000
0.913010 0.896673 0.000000
1.000000 0.898174 0.000000
0.000000 0.821029 0.000000
0.034809 0.821803 0.000000
0.070514 0.824545 0.000000
0.106819 0.828617 0.000000
0.144016 0.834254 0.000000
0.182645 0.841053 0.000000
0.222727 0.848933 0.000000
0.264376 0.858256 0.000000
0.308660 0.867511 0.000000
0.355496 0.877116 0.000000
0.405846 0.886473 0.000000
0.461419 0.896093 0.000000
0.521659 0.905149 0.000000
0.589050 0.912895 0.000000
0.662084 0.919957 0.000000
0.741115 0.925367 0.000000
0.824545 0.929486 0.000000
0.910881 0.931796 0.000000
1.000000 0.932771 0.000000
0.000000 0.909079 0.000000
0.033685 0.909517 0.000000
0.068204 0.910881 0.000000
0.103327 0.913010 0.000000
0.139539 0.915874 0.000000
0.177314 0.919437 0.000000
0.216636 0.923548 0.000000
0.257748 0.928195 0.000000
0.301585 0.933057 0.000000
0.348436 0.938026 0.000000
0.398700 0.942814 0.000000
0.454867 0.947910 0.000000
0.515692 0.952577 0.000000
0.583502 0.956635 0.000000
0.657132 0.960333 0.000000
0.737203 0.963089 0.000000
0.821803 0.965191 0.000000
0.909517 0.966315 0.000000
1.000000 0.966829 0.000000
0.000000 1.000000 0.000000
0.033171 1.000000 0.000000
0.067229 1.000000 0.000000
0.101826 1.000000 0.000000
0.137643 1.000000 0.000000
0.175162 1.000000 0.000000
0.214466 1.000000 0.000000
0.255539 1.000000 0.000000
0.299263 1.000000 0.000000
0.346217 1.000000 0.000000
0.396536 1.000000 0.000000
0.452726 1.000000 0.000000
0.513944 1.000000 0.000000
0.581858 1.000000 0.000000
0.655643 1.000000 0.000000
0.736057 1.000000 0.000000
0.821029 1.000000 0.000000
0.909079 1.000000 0.000000
1.000000 1.000000 0.000000
0.000000 0.000000 0.055000
0.090920 0.000000 0.055000
0.178971 0.000000 0.055000
0.263943 0.000000 0.055000
0.344357 0.000000 0.055000
0.418142 0.000000 0.055000
0.486056 0.000000 0.055000
0.547274 0.000000 0.055000
0.603464 0.000000 0.055000
0.653783 0.000000 0.055000
0.700737 0.000000 0.055000
0.744461 0.000000 0.055000
0.785534 0.000000 0.055000
0.824838 0.000000 0.055000
0.862357 0.000000 0.055000
0.898174 0.000000 0.055000
0.932771 0.000000 0.055000
0.966829 0.000000 0.055000
1.000000 0.000000 0.055000
0.000000 0.033171 0.055000
0.090482 0.033685 0.055000
0.178197 0.034809 0.055000
0.262797 0.036910 0.055000
0.342868 0.039667 0.055000
0.416498 0.043364 0.055000
0.484308 0.047423 0.055000
0.545134 0.052090 0.055000
0.601300 0.057186 0.055000
0.651564 0.061974 0.055000
0.698415 0.066943 0.055000
0.742252 0.071804 0.055000
0.783364 0.076452 0.055000
0.822686 0.080562 0.055000
0.860461 0.084125 0.055000
0.896673 0.086990 0.055000
0.931796 0.089119 0.055000
0.966315 0.090482 0.055000
1.000000 0.090920 0.055000
0.000000 0.067229 0.055000
0.089119 0.068204 0.055000
0.175455 0.070514 0.055000
0.258885 0.074633 0.055000
0.337916 0.080043 0.055000
0.410950 0.087105 0.055000
0.478341 0.094851 0.055000
0.538581 0.103907 0.055000
0.594154 0.113527 0.055000
0.644504 0.122884 0.055000
0.691340 0.132489 0.055000
0.735624 0.141744 0.055000
0.777273 0.151067 0.055000
0.817355 0.158947 0.055000
0.855984 0.165746 0.055000
0.893181 0.171383 0.055000
0.929486 0.175455 0.055000
0.965191 0.178197 0.055000
1.000000 0.178971 0.055000
0.000000 0.101826 0.055000
0.086990 0.103327 0.055000
0.171383 0.106819 0.055000
0.252883 0.112997 0.055000
0.330110 0.120783 0.055000
0.402061 0.130760 0.055000
0.468686 0.142066 0.055000
0.527751 0.155204 0.055000
0.582869 0.169035 0.055000
0.632902 0.182576 0.055000
0.679774 0.196509 0.055000
0.724637 0.209903 0.055000
0.766813 0.223351 0.055000
0.808048 0.234834 0.055000
0.847989 0.244720 0.055000
0.887003 0.252883 0.055000
0.925367 0.258885 0.055000
0.963089 0.262797 0.055000
1.000000 0.263943 0.055000
0.000000 0.137643 0.055000
0.084125 0.139539 0.055000
0.165746 0.144016 0.055000
0.244720 0.152011 0.055000
0.319911 0.162407 0.055000
0.389935 0.175235 0.055000
0.455037 0.189838 0.055000
0.512875 0.206344 0.055000
0.567099 0.223624 0.055000
0.617008 0.241292 0.055000
0.664155 0.258521 0.055000
0.709704 0.275654 0.055000
0.752806 0.292862 0.055000
0.795903 0.307476 0.055000
0.837593 0.319911 0.055000
0.879217 0.330110 0.055000
0.919957 0.337916 0.055000
0.960333 0.342868 0.055000
1.000000 0.344357 0.055000
0.000000 0.175162 0.055000
0.080562 0.177314 0.055000
0.158947 0.182645 0.055000
0.234834 0.191952 0.055000
0.307476 0.204097 0.055000
0.375510 0.219524 0.055000
0.438875 0.236702 0.055000
0.495342 0.256532 0.055000
0.548203 0.277388 0.055000
0.598148 0.298028 0.055000
0.645488 0.319088 0.055000
0.691208 0.338939 0.055000
0.735165 0.358380 0.055000
0.780476 0.375510 0.055000
0.824765 0.389935 0.055000
0.869240 0.402061 0.055000
0.912895 0.410950 0.055000
0.956635 0.416498 0.055000
1.000000 0.418142 0.055000
0.000000 0.214466 0.055000
0.076452 0.216636 0.055000
0.151067 0.222727 0.055000
0.223351 0.233187 0.055000
0.292862 0.247194 0.055000
0.358380 0.264835 0.055000
0.420584 0.284290 0.055000
0.475059 0.306365 0.055000
0.526537 0.330181 0.055000
0.576378 0.352930 0.055000
0.623988 0.376852 0.055000
0.670496 0.399576 0.055000
0.715710 0.420584 0.055000
0.763298 0.438875 0.055000
0.810162 0.455037 0.055000
0.857934 0.468686 0.055000
0.905149 0.478341 0.055000
0.952577 0.484308 0.055000
1.000000 0.486056 0.055000
0.000000 0.255539 0.055000
0.071804 0.257748 0.055000
0.141744 0.264376 0.055000
0.209903 0.275363 0.055000
0.275654 0.290296 0.055000
0.338939 0.308792 0.055000
0.399576 0.329504 0.055000
0.452004 0.353028 0.055000
0.502286 0.377737 0.055000
0.552119 0.402585 0.055000
0.599782 0.427434 0.055000
0.646972 0.452004 0.055000
0.693635 0.475059 0.055000
0.743468 0.495342 0.055000
0.793656 0.512875 0.055000
0.844796 0.527751 0.055000
0.896093 0.538581 0.055000
0.947910 0.545133 0.055000
1.000000 0.547274 0.055000
0.000000 0.299263 0.055000
0.066943 0.301585 0.055000
0.132489 0.308660 0.055000
0.196509 0.320226 0.055000
0.258521 0.335845 0.055000
0.319088 0.354512 0.055000
0.376852 0.376012 0.055000
0.427434 0.400218 0.055000
0.477139 0.425101 0.055000
0.526219 0.451044 0.055000
0.574899 0.477139 0.055000
0.622263 0.502286 0.055000
0.669819 0.526537 0.055000
0.722612 0.548203 0.055000
0.776376 0.567099 0.055000
0.830965 0.582869 0.055000
0.886473 0.594154 0.055000
0.942814 0.601300 0.055000
1.000000 0.603464 0.055000
0.000000 0.346217 0.055000
0.061974 0.348436 0.055000
0.122884 0.355496 0.055000
0.182576 0.367098 0.055000
0.241292 0.382992 0.055000
0.298028 0.401852 0.055000
0.352930 0.423622 0.055000
0.402585 0.447881 0.055000
0.451044 0.473781 0.055000
0.500000 0.500000 0.055000
0.548956 0.526219 0.055000
0.597415 0.552119 0.055000
0.647070 0.576378 0.055000
0.701972 0.598148 0.055000
0.758708 0.617008 0.055000
0.817424 0.632902 0.055000
0.877116 0.644504 0.055000
0.938026 0.651564 0.055000
1.000000 0.653783 0.055000
0.000000 0.396536 0.055000
0.057186 0.398700 0.055000
0.113527 0.405846 0.055000
0.169035 0.417131 0.055000
0.223624 0.432901 0.055000
0.277388 0.451797 0.055000
0.330181 0.473463 0.055000
0.377737 0.497714 0.055000
0.425101 0.522861 0.055000
0.473781 0.548956 0.055000
0.522861 0.574899 0.055000
0.572566 0.599782 0.055000
0.623148 0.623988 0.055000
0.680912 0.645488 0.055000
0.741479 0.664155 0.055000
0.803491 0.679774 0.055000
0.867511 0.691340 0.055000
0.933057 0.698415 0.055000
1.000000 0.700737 0.055000
0.000000 0.452726 0.055000
0.052090 0.454866 0.055000
0.103907 0.461419 0.055000
0.155204 0.472249 0.055000
0.206344 0.487125 0.055000
0.256532 0.504658 0.055000
0.306365 0.524941 0.055000
0.353028 0.547996 0.055000
0.400218 0.572566 0.055000
0.447881 0.597415 0.055000
0.497714 0.622263 0.055000
0.547996 0.646972 0.055000
0.600424 0.670496 0.055000
0.661061 0.691208 0.055000
0.724346 0.709704 0.055000
0.790097 0.724637 0.055000
0.858256 0.735624 0.055000
0.928195 0.742252 0.055000
1.000000 0.744461 0.055000
0.000000 0.513944 0.055000
0.047423 0.515692 0.055000
0.094851 0.521659 0.055000
0.142066 0.531314 0.055000
0.189838 0.544963 0.055000
0.236702 0.561125 0.055000
0.284290 0.579416 0.055000
0.329504 0.600424 0.055000
0.376012 0.623148 0.055000
0.423622 0.647070 0.055000
0.473463 0.669819 0.055000
0.524941 0.693635 0.055000
0.579416 0.715710 0.055000
0.641620 0.735165 0.055000
0.707138 0.752806 0.055000
0.776649 0.766813 0.055000
0.848933 0.777273 0.055000
0.923548 0.783364 0.055000
1.000000 0.785534 0.055000
0.000000 0.581858 0.055000
0.043364 0.583502 0.055000
0.087105 0.589050 0.055000
0.130760 0.597939 0.055000
0.175235 0.610065 0.055000
0.219524 0.624490 0.055000
0.264835 0.641620 0.055000
0.308792 0.661061 0.055000
0.354512 0.680912 0.055000
0.401852 0.701972 0.055000
0.451797 0.722612 0.055000
0.504658 0.743468 0.055000
0.561125 0.763298 0.055000
0.624490 0.780476 0.055000
0.692524 0.795903 0.055000
0.765166 0.808048 0.055000
0.841053 0.817355 0.055000
0.919437 0.822686 0.055000
1.000000 0.824838 0.055000
0.000000 0.655643 0.055000
0.039667 0.657132 0.055000
0.080043 0.662084 0.055000
0.120783 0.669890 0.055000
0.162407 0.680089 0.055000
0.204097 0.692524 0.055000
0.247194 0.707138 0.055000
0.290296 0.724346 0.055000
0.335845 0.741479 0.055000
0.382992 0.758708 0.055000
0.432901 0.776376 0.055000
0.487125 0.793656 0.055000
0.544963 0.810162 0.055000
0.610065 0.824765 0.055000
0.680089 0.837593 0.055000
0.755280 0.847989 0.055000
0.834254 0.855984 0.055000
0.915874 0.860461 0.055000
1.000000 0.862357 0.055000
0.000000 0.736057 0.055000
0.036910 0.737203 0.055000
0.074633 0.741115 0.055000
0.112997 0.747117 0.055000
0.152011 0.755280 0.055000
0.191952 0.765166 0.055000
0.233187 0.776649 0.055000
0.275363 0.790097 0.055000
0.320226 0.803491 0.055000
0.367098 0.817424 0.055000
0.417131 0.830965 0.055000
0.472249 0.844796 0.055000
0.531314 0.857934 0.055000
0.597939 0.869240 0.055000
0.669890 0.879217 0.055000
0.747117 0.887003 0.055000
0.828617 0.893181 0.055000
0.913010 0.896673 0.055000
1.000000 0.898174 0.055000
0.000000 0.821029 0.055000
0.034809 0.821803 0.055000
0.070514 0.824545 0.055000
0.106819 0.828617 0.055000
0.144016 0.834254 0.055000
0.182645 0.841053 0.055000
0.222727 0.848933 0.055000
0.264376 0.858256 0.055000
0.308660 0.867511 0.055000
0.355496 0.877116 0.055000
0.405846 0.886473 0.055000
0.461419 0.896093 0.055000
0.521659 0.905149 0.055000
0.589050 0.912895 0.055000
0.662084 0.919957 0.055000
0.741115 0.925367 0.055000
0.824545 0.929486 0.055000
0.910881 0.931796 0.055000
1.000000 0.932771 0.055000
0.000000 0.909079 0.055000
0.033685 0.909517 0.055000
0.068204 0.910881 0.055000
0.103327 0.913010 0.055000
0.139539 0.915874 0.055000
0.177314 0.919437 0.055000
0.216636 0.923548 0.055000
0.257748 0.928195 0.055000
0.301585 0.933057 0.055000
0.348436 0.938026 0.055000
0.398700 0.942814 0.055000
0.454867 0.947910 0.055000
0.515692 0.952577 0.055000
0.583502 0.956635 0.055000
0.657132 0.960333 0.055000
0.737203 0.963089 0.055000
0.821803 0.965191 0.055000
0.909517 0.966315 0.055000
1.000000 0.966829 0.055000
0.000000 1.000000 0.055000
0.033171 1.000000 0.055000
0.067229 1.000000 0.055000
0.101826 1.000000 0.055000
0.137643 1.000000 0.055000
0.175162 1.000000 0.055000
0.214466 1.000000 0.055000
0.255539 1.000000 0.055000
0.299263 1.000000 0.055000
0.346217 1.000000 0.055000
0.396536 1.000000 0.055000
0.452726 1.000000 0.055000
0.513944 1.000000 0.055000
0.581858 1.000000 0.055000
0.655643 1.000000 0.055000
0.736057 1.000000 0.055000
0.821029 1.000000 0.055000
0.909079 1.000000 0.055000
1.000000 1.000000 0.055000
0.000000 0.000000 0.110000
0.090920 0.000000 0.110000
0.178971 0.000000 0.110000
0.263943 0.000000 0.110000
0.344357 0.000000 0.110000
0.418142 0.000000 0.110000
0.486056 0.000000 0.110000
0.547274 0.000000 0.110000
0.603464 0.000000 0.110000
0.653783 0.000000 0.110000
0.700737 0.000000 0.110000
0.744461 0.000000 0.110000
0.785534 0.000000 0.110000
0.824838 0.000000 0.110000
0.862357 0.000000 0.110000
0.898174 0.000000 0.110000
0.932771 0.000000 0.110000