# vtk DataFile Version 2.0
Mesh for Fierro
ASCII 
DATASET UNSTRUCTURED_GRID

POINTS 2527 float
0.000000 0.000000 0.000000
0.452513 0.000000 0.000000
0.717220 0.000000 0.000000
0.786154 0.000000 0.000000
0.847758 0.000000 0.000000
0.878788 0.000000 0.000000
0.900156 0.000000 0.000000
0.916451 0.000000 0.000000
0.929742 0.000000 0.000000
0.940576 0.000000 0.000000
0.949467 0.000000 0.000000
0.957020 0.000000 0.000000
0.963418 0.000000 0.000000
0.969420 0.000000 0.000000
0.975167 0.000000 0.000000
0.981132 0.000000 0.000000
0.987277 0.000000 0.000000
0.993632 0.000000 0.000000
1.000000 0.000000 0.000000
0.000000 0.006392 0.000000
0.452147 0.007722 0.000000
0.708472 0.026632 0.000000
0.782011 0.046844 0.000000
0.843540 0.068960 0.000000
0.872804 0.118475 0.000000
0.893987 0.159804 0.000000
0.908816 0.200152 0.000000
0.920974 0.241384 0.000000
0.930594 0.283535 0.000000
0.939178 0.319963 0.000000
0.946887 0.356775 0.000000
0.953898 0.390393 0.000000
0.961298 0.413623 0.000000
0.968671 0.431943 0.000000
0.976508 0.443549 0.000000
0.984441 0.448482 0.000000
0.992283 0.452107 0.000000
1.000000 0.452331 0.000000
0.000000 0.012770 0.000000
0.448204 0.015548 0.000000
0.693169 0.049342 0.000000
0.775722 0.088439 0.000000
0.833909 0.134596 0.000000
0.859424 0.211879 0.000000
0.876100 0.283673 0.000000
0.888306 0.345728 0.000000
0.895111 0.408667 0.000000
0.898407 0.464407 0.000000
0.899246 0.513302 0.000000
0.898989 0.555352 0.000000
0.900063 0.592605 0.000000
0.906959 0.622760 0.000000
0.917312 0.649323 0.000000
0.932062 0.673166 0.000000
0.950685 0.693058 0.000000
0.973404 0.708472 0.000000
1.000000 0.717365 0.000000
0.000000 0.018895 0.000000
0.443557 0.023479 0.000000
0.673149 0.067945 0.000000
0.762770 0.121815 0.000000
0.813971 0.189840 0.000000
0.835314 0.274486 0.000000
0.841896 0.361168 0.000000
0.848626 0.424398 0.000000
0.841411 0.495019 0.000000
0.834171 0.551807 0.000000
0.824379 0.605549 0.000000
0.821042 0.650935 0.000000
0.820944 0.691621 0.000000
0.832590 0.722084 0.000000
0.850325 0.746961 0.000000
0.878178 0.762767 0.000000
0.911590 0.775710 0.000000
0.953122 0.781985 0.000000
1.000000 0.786173 0.000000
0.000000 0.024844 0.000000
0.432081 0.031322 0.000000
0.649329 0.082758 0.000000
0.746983 0.149660 0.000000
0.787519 0.233637 0.000000
0.807537 0.322532 0.000000
0.800221 0.417059 0.000000
0.801141 0.484246 0.000000
0.779558 0.554279 0.000000
0.763464 0.607059 0.000000
0.747998 0.651925 0.000000
0.740492 0.689252 0.000000
0.732227 0.723761 0.000000
0.744828 0.756461 0.000000
0.766327 0.787541 0.000000
0.810208 0.813949 0.000000
0.865387 0.833908 0.000000
0.931079 0.843567 0.000000
1.000000 0.847838 0.000000
0.000000 0.030607 0.000000
0.413514 0.038691 0.000000
0.622667 0.093023 0.000000
0.722051 0.167374 0.000000
0.756470 0.255118 0.000000
0.774181 0.345861 0.000000
0.757892 0.435309 0.000000
0.752117 0.503870 0.000000
0.719961 0.562829 0.000000
0.694726 0.612214 0.000000
0.669558 0.655783 0.000000
0.654049 0.697056 0.000000
0.641991 0.736567 0.000000
0.654134 0.774168 0.000000
0.677486 0.807497 0.000000
0.725483 0.835344 0.000000
0.788099 0.859422 0.000000
0.881446 0.872753 0.000000
1.000000 0.878672 0.000000
0.000000 0.036659 0.000000
0.390476 0.046116 0.000000
0.592590 0.099973 0.000000
0.691670 0.179077 0.000000
0.723769 0.267847 0.000000
0.736559 0.357892 0.000000
0.715725 0.442327 0.000000
0.698294 0.510637 0.000000
0.655276 0.560749 0.000000
0.626535 0.607235 0.000000
0.593692 0.644188 0.000000
0.578010 0.682590 0.000000
0.557668 0.715768 0.000000
0.564661 0.757964 0.000000
0.583007 0.800297 0.000000
0.638897 0.841950 0.000000
0.716229 0.876135 0.000000
0.840214 0.893841 0.000000
1.000000 0.899951 0.000000
0.000000 0.043082 0.000000
0.356656 0.053121 0.000000
0.555245 0.100989 0.000000
0.650983 0.178966 0.000000
0.689209 0.259523 0.000000
0.697053 0.345960 0.000000
0.682595 0.422017 0.000000
0.658995 0.485860 0.000000
0.617426 0.530716 0.000000
0.579498 0.576556 0.000000
0.541610 0.615951 0.000000
0.514120 0.658983 0.000000
0.489398 0.698244 0.000000
0.496106 0.752101 0.000000
0.515719 0.801148 0.000000
0.575694 0.848670 0.000000
0.654297 0.888423 0.000000
0.799806 0.908818 0.000000
1.000000 0.916374 0.000000
0.000000 0.050654 0.000000
0.319901 0.060833 0.000000
0.513261 0.100755 0.000000
0.605578 0.175600 0.000000
0.651900 0.251958 0.000000
0.655760 0.330423 0.000000
0.644187 0.406257 0.000000
0.615987 0.458387 0.000000
0.577699 0.498984 0.000000
0.539110 0.540311 0.000000
0.501012 0.577735 0.000000
0.469251 0.617417 0.000000
0.439154 0.655252 0.000000
0.437247 0.719999 0.000000
0.445679 0.779601 0.000000
0.504930 0.841375 0.000000
0.591027 0.895109 0.000000
0.758444 0.920948 0.000000
1.000000 0.929647 0.000000
0.000000 0.059513 0.000000
0.283656 0.069431 0.000000
0.464355 0.101564 0.000000
0.551842 0.165824 0.000000
0.607101 0.236606 0.000000
0.612208 0.305273 0.000000
0.607276 0.373511 0.000000
0.576519 0.420551 0.000000
0.540286 0.460882 0.000000
0.499997 0.500033 0.000000
0.459665 0.539130 0.000000
0.423460 0.579467 0.000000
0.392777 0.626536 0.000000
0.387789 0.694754 0.000000
0.392886 0.763392 0.000000
0.448099 0.834120 0.000000
0.535526 0.898426 0.000000
0.716183 0.930634 0.000000
1.000000 0.940241 0.000000
0.000000 0.070339 0.000000
0.241613 0.079066 0.000000
0.408923 0.104947 0.000000
0.495050 0.158603 0.000000
0.554257 0.220361 0.000000
0.562804 0.280015 0.000000
0.560834 0.344761 0.000000
0.530751 0.382558 0.000000
0.498949 0.422283 0.000000
0.460900 0.459691 0.000000
0.422272 0.501022 0.000000
0.383999 0.541625 0.000000
0.355797 0.593695 0.000000
0.344276 0.669590 0.000000
0.348053 0.748080 0.000000
0.394530 0.824462 0.000000
0.486606 0.899283 0.000000
0.679908 0.939161 0.000000
1.000000 0.949191 0.000000
0.000000 0.083567 0.000000
0.200180 0.091174 0.000000
0.345815 0.111668 0.000000
0.424407 0.151391 0.000000
0.484250 0.198872 0.000000
0.503839 0.247899 0.000000
0.510609 0.301716 0.000000
0.485909 0.341007 0.000000
0.458370 0.384026 0.000000
0.420541 0.423473 0.000000
0.382593 0.469271 0.000000
0.341013 0.514132 0.000000
0.317385 0.578051 0.000000
0.302964 0.654040 0.000000
0.310742 0.740492 0.000000
0.349077 0.821085 0.000000
0.444729 0.899113 0.000000
0.643449 0.946927 0.000000
1.000000 0.956909 0.000000
0.000000 0.099823 0.000000
0.159738 0.106009 0.000000
0.283536 0.123794 0.000000
0.361206 0.158001 0.000000
0.417032 0.199796 0.000000
0.435340 0.242106 0.000000
0.442202 0.284307 0.000000
0.421999 0.317437 0.000000
0.406284 0.355816 0.000000
0.373483 0.392760 0.000000
0.344744 0.439152 0.000000
0.301753 0.489402 0.000000
0.284289 0.557771 0.000000
0.263382 0.641874 0.000000
0.276342 0.732309 0.000000
0.308313 0.820998 0.000000
0.407406 0.900090 0.000000
0.609634 0.953944 0.000000
1.000000 0.963316 0.000000
0.000000 0.121217 0.000000
0.118588 0.127193 0.000000
0.211941 0.140577 0.000000
0.274578 0.164645 0.000000
0.322522 0.192409 0.000000
0.345832 0.225772 0.000000
0.358065 0.263397 0.000000
0.345967 0.302969 0.000000
0.330428 0.344249 0.000000
0.305232 0.387790 0.000000
0.280033 0.437173 0.000000
0.247882 0.496136 0.000000
0.242112 0.564640 0.000000
0.225812 0.654148 0.000000
0.243649 0.744846 0.000000
0.277834 0.832637 0.000000
0.377348 0.907014 0.000000
0.586328 0.961355 0.000000
1.000000 0.969280 0.000000
0.000000 0.152147 0.000000
0.068944 0.156394 0.000000
0.134519 0.166071 0.000000
0.189839 0.186094 0.000000
0.233629 0.212587 0.000000
0.255178 0.243654 0.000000
0.267697 0.276329 0.000000
0.259459 0.310754 0.000000
0.251928 0.348070 0.000000
0.236594 0.392856 0.000000
0.220417 0.445662 0.000000
0.198870 0.515745 0.000000
0.199788 0.582993 0.000000
0.192443 0.677476 0.000000
0.212585 0.766358 0.000000
0.252974 0.850397 0.000000
0.350757 0.917298 0.000000
0.567553 0.968728 0.000000
1.000000 0.974996 0.000000
0.000000 0.213830 0.000000
0.046866 0.218038 0.000000
0.088429 0.224371 0.000000
0.121804 0.237191 0.000000
0.149619 0.252986 0.000000
0.167358 0.277857 0.000000
0.178980 0.308329 0.000000
0.178909 0.349091 0.000000
0.175564 0.394488 0.000000
0.165941 0.448070 0.000000
0.158639 0.504970 0.000000
0.151345 0.575678 0.000000
0.158021 0.638787 0.000000
0.164648 0.725453 0.000000
0.186087 0.810142 0.000000
0.237191 0.878213 0.000000
0.326971 0.932074 0.000000
0.555939 0.976541 0.000000
1.000000 0.980985 0.000000
0.000000 0.283065 0.000000
0.026678 0.291366 0.000000
0.049380 0.306830 0.000000
0.067920 0.327000 0.000000
0.082725 0.350718 0.000000
0.092994 0.377347 0.000000
0.099940 0.407392 0.000000
0.100909 0.444727 0.000000
0.100792 0.486539 0.000000
0.101603 0.535526 0.000000
0.104877 0.591037 0.000000
0.111580 0.654306 0.000000
0.123857 0.716249 0.000000
0.140570 0.788046 0.000000
0.166049 0.865437 0.000000
0.224369 0.911554 0.000000
0.306860 0.950663 0.000000
0.551053 0.984459 0.000000
1.000000 0.987228 0.000000
0.000000 0.547682 0.000000
0.007700 0.547517 0.000000
0.015552 0.550876 0.000000
0.023446 0.556003 0.000000
0.031272 0.567419 0.000000
0.038654 0.586157 0.000000
0.046080 0.609390 0.000000
0.053094 0.643289 0.000000
0.060848 0.679674 0.000000
0.069376 0.716124 0.000000
0.079040 0.758372 0.000000
0.091153 0.799830 0.000000
0.106095 0.840076 0.000000
0.127206 0.881389 0.000000
0.156458 0.931070 0.000000
0.218005 0.953106 0.000000
0.291338 0.973339 0.000000
0.547600 0.992305 0.000000
1.000000 0.993646 0.000000
0.000000 1.000000 0.000000
0.006381 1.000000 0.000000
0.012800 1.000000 0.000000
0.019008 1.000000 0.000000
0.024995 1.000000 0.000000
0.030706 1.000000 0.000000
0.036693 1.000000 0.000000
0.043122 1.000000 0.000000
0.050803 1.000000 0.000000
0.059747 1.000000 0.000000
0.070372 1.000000 0.000000
0.083616 1.000000 0.000000
0.099957 1.000000 0.000000
0.121319 1.000000 0.000000
0.152186 1.000000 0.000000
0.213851 1.000000 0.000000
0.282994 1.000000 0.000000
0.547670 1.000000 0.000000
1.000000 1.000000 0.000000
0.000000 0.000000 0.055213
0.452661 0.000000 0.055067
0.716754 0.000000 0.055054
0.786052 0.000000 0.055012
0.847796 0.000000 0.054976
[...]
POINT_DATA 2527 
VECTORS pos float 
0.000000 0.000000 0.000000
0.452513 0.000000 0.000000
0.717220 0.000000 0.000000
0.786154 0.000000 0.000000
0.847758 0.000000 0.000000
0.878788 0.000000 0.000000
0.900156 0.000000 0.000000
0.916451 0.000000 0.000000
0.929742 0.000000 0.000000
0.940576 0.000000 0.000000
0.949467 0.000000 0.000000
0.957020 0.000000 0.000000
0.963418 0.000000 0.000000
0.969420 0.000000 0.000000
0.975167 0.000000 0.000000
0.981132 0.000000 0.000000
0.987277 0.000000 0.000000
0.993632 0.000000 0.000000
1.000000 0.000000 0.000000
0.000000 0.006392 0.000000
0.452147 0.007722 0.000000
0.708472 0.026632 0.000000
0.782011 0.046844 0.000000
0.843540 0.068960 0.000000
0.872804 0.118475 0.000000
0.893987 0.159804 0.000000
0.908816 0.200152 0.000000
0.920974 0.241384 0.000000
0.930594 0.283535 0.000000
0.939178 0.319963 0.000000
0.946887 0.356775 0.000000
0.953898 0.390393 0.000000
0.961298 0.413623 0.000000
0.968671 0.431943 0.000000
0.976508 0.443549 0.000000
0.984441 0.448482 0.000000
0.992283 0.452107 0.000000
1.000000 0.452331 0.000000
0.000000 0.012770 0.000000
0.448204 0.015548 0.000000
0.693169 0.049342 0.000000
0.775722 0.088439 0.000000
0.833909 0.134596 0.000000
0.859424 0.211879 0.000000
0.876100 0.283673 0.000000
0.888306 0.345728 0.000000
0.895111 0.408667 0.000000
0.898407 0.464407 0.000000
0.899246 0.513302 0.000000
0.898989 0.555352 0.000000
0.900063 0.592605 0.000000
0.906959 0.622760 0.000000
0.917312 0.649323 0.000000
0.932062 0.673166 0.000000
0.950685 0.693058 0.000000
0.973404 0.708472 0.000000
1.000000 0.717365 0.000000
0.000000 0.018895 0.000000
0.443557 0.023479 0.000000
0.673149 0.067945 0.000000
0.762770 0.121815 0.000000
0.813971 0.189840 0.000000
0.835314 0.274486 0.000000
0.841896 0.361168 0.000000
0.848626 0.424398 0.000000
0.841411 0.495019 0.000000
0.834171 0.551807 0.000000
0.824379 0.605549 0.000000
0.821042 0.650935 0.000000
0.820944 0.691621 0.000000
0.832590 0.722084 0.000000
0.850325 0.746961 0.000000
0.878178 0.762767 0.000000
0.911590 0.775710 0.000000
0.953122 0.781985 0.000000
1.000000 0.786173 0.000000
0.000000 0.024844 0.000000
0.432081 0.031322 0.000000
0.649329 0.082758 0.000000
0.746983 0.149660 0.000000
0.787519 0.233637 0.000000
0.807537 0.322532 0.000000
0.800221 0.417059 0.000000
0.801141 0.484246 0.000000
0.779558 0.554279 0.000000
0.763464 0.607059 0.000000
0.747998 0.651925 0.000000
0.740492 0.689252 0.000000
0.732227 0.723761 0.000000
0.744828 0.756461 0.000000
0.766327 0.787541 0.000000
0.810208 0.813949 0.000000
0.865387 0.833908 0.000000
0.931079 0.843567 0.000000
1.000000 0.847838 0.000000
0.000000 0.030607 0.000000
0.413514 0.038691 0.000000
0.622667 0.093023 0.000000
0.722051 0.167374 0.000000
0.756470 0.255118 0.000000
0.774181 0.345861 0.000000
0.757892 0.435309 0.000000
0.752117 0.503870 0.000000
0.719961 0.562829 0.000000
0.694726 0.612214 0.000000
0.669558 0.655783 0.000000
0.654049 0.697056 0.000000
0.641991 0.736567 0.000000
0.654134 0.774168 0.000000
0.677486 0.807497 0.000000
0.725483 0.835344 0.000000
0.788099 0.859422 0.000000
0.881446 0.872753 0.000000
1.000000 0.878672 0.000000
0.000000 0.036659 0.000000
0.390476 0.046116 0.000000
0.592590 0.099973 0.000000
0.691670 0.179077 0.000000
0.723769 0.267847 0.000000
0.736559 0.357892 0.000000
0.715725 0.442327 0.000000
0.698294 0.510637 0.000000
0.655276 0.560749 0.000000
0.626535 0.607235 0.000000
0.593692 0.644188 0.000000
0.578010 0.682590 0.000000
0.557668 0.715768 0.000000
0.564661 0.757964 0.000000
0.583007 0.800297 0.000000
0.638897 0.841950 0.000000
0.716229 0.876135 0.000000
0.840214 0.893841 0.000000
1.000000 0.899951 0.000000
0.000000 0.043082 0.000000
0.356656 0.053121 0.000000
0.555245 0.100989 0.000000
0.650983 0.178966 0.000000
0.689209 0.259523 0.000000
0.697053 0.345960 0.000000
0.682595 0.422017 0.000000
0.658995 0.485860 0.000000
0.617426 0.530716 0.000000
0.579498 0.576556 0.000000
0.541610 0.615951 0.000000
0.514120 0.658983 0.000000
0.489398 0.698244 0.000000
0.496106 0.752101 0.000000
0.515719 0.801148 0.000000
0.575694 0.848670 0.000000
0.654297 0.888423 0.000000
0.799806 0.908818 0.000000
1.000000 0.916374 0.000000
0.000000 0.050654 0.000000
0.319901 0.060833 0.000000
0.513261 0.100755 0.000000
0.605578 0.175600 0.000000
0.651900 0.251958 0.000000
0.655760 0.330423 0.000000
0.644187 0.406257 0.000000
0.615987 0.458387 0.000000
0.577699 0.498984 0.000000
0.539110 0.540311 0.000000
0.501012 0.577735 0.000000
0.469251 0.617417 0.000000
0.439154 0.655252 0.000000
0.437247 0.719999 0.000000
0.445679 0.779601 0.000000
0.504930 0.841375 0.000000
0.591027 0.895109 0.000000
0.758444 0.920948 0.000000
1.000000 0.929647 0.000000
0.000000 0.059513 0.000000
0.283656 0.069431 0.000000
0.464355 0.101564 0.000000
0.551842 0.165824 0.000000
0.607101 0.236606 0.000000
0.612208 0.305273 0.000000
0.607276 0.373511 0.000000
0.576519 0.420551 0.000000
0.540286 0.460882 0.000000
0.499997 0.500033 0.000000
0.459665 0.539130 0.000000
0.423460 0.579467 0.000000
0.392777 0.626536 0.000000
0.387789 0.694754 0.000000
0.392886 0.763392 0.000000
0.448099 0.834120 0.000000
0.535526 0.898426 0.000000
0.716183 0.930634 0.000000
1.000000 0.940241 0.000000
0.000000 0.070339 0.000000
0.241613 0.079066 0.000000
0.408923 0.104947 0.000000
0.495050 0.158603 0.000000
0.554257 0.220361 0.000000
0.562804 0.280015 0.000000
0.560834 0.344761 0.000000
0.530751 0.382558 0.000000
0.498949 0.422283 0.000000
0.460900 0.459691 0.000000
0.422272 0.501022 0.000000
0.383999 0.541625 0.000000
0.355797 0.593695 0.000000
0.344276 0.669590 0.000000
0.348053 0.748080 0.000000
0.394530 0.824462 0.000000
0.486606 0.899283 0.000000
0.679908 0.939161 0.000000
1.000000 0.949191 0.000000
0.000000 0.083567 0.000000
0.200180 0.091174 0.000000
0.345815 0.111668 0.000000
0.424407 0.151391 0.000000
0.484250 0.198872 0.000000
0.503839 0.247899 0.000000
0.510609 0.301716 0.000000
0.485909 0.341007 0.000000
0.458370 0.384026 0.000000
0.420541 0.423473 0.000000
0.382593 0.469271 0.000000
0.341013 0.514132 0.000000
0.317385 0.578051 0.000000
0.302964 0.654040 0.000000
0.310742 0.740492 0.000000
0.349077 0.821085 0.000000
0.444729 0.899113 0.000000
0.643449 0.946927 0.000000
1.000000 0.956909 0.000000
0.000000 0.099823 0.000000
0.159738 0.106009 0.000000
0.283536 0.123794 0.000000
0.361206 0.158001 0.000000
0.417032 0.199796 0.000000
0.435340 0.242106 0.000000
0.442202 0.284307 0.000000
0.421999 0.317437 0.000000
0.406284 0.355816 0.000000
0.373483 0.392760 0.000000
0.344744 0.439152 0.000000
0.301753 0.489402 0.000000
0.284289 0.557771 0.000000
0.263382 0.641874 0.000000
0.276342 0.732309 0.000000
0.308313 0.820998 0.000000
0.407406 0.900090 0.000000
0.609634 0.953944 0.000000
1.000000 0.963316 0.000000
0.000000 0.121217 0.000000
0.118588 0.127193 0.000000
0.211941 0.140577 0.000000
0.274578 0.164645 0.000000
0.322522 0.192409 0.000000
0.345832 0.225772 0.000000
0.358065 0.263397 0.000000
0.345967 0.302969 0.000000
0.330428 0.344249 0.000000
0.305232 0.387790 0.000000
0.280033 0.437173 0.000000
0.247882 0.496136 0.000000
0.242112 0.564640 0.000000
0.225812 0.654148 0.000000
0.243649 0.744846 0.000000
0.277834 0.832637 0.000000
0.377348 0.907014 0.000000
0.586328 0.961355 0.000000
1.000000 0.969280 0.000000
0.000000 0.152147 0.000000
0.068944 0.156394 0.000000
0.134519 0.166071 0.000000
0.189839 0.186094 0.000000
0.233629 0.212587 0.000000
0.255178 0.243654 0.000000
0.267697 0.276329 0.000000
0.259459 0.310754 0.000000
0.251928 0.348070 0.000000
0.236594 0.392856 0.000000
0.220417 0.445662 0.000000
0.198870 0.515745 0.000000
0.199788 0.582993 0.000000
0.192443 0.677476 0.000000
0.212585 0.766358 0.000000
0.252974 0.850397 0.000000
0.350757 0.917298 0.000000
0.567553 0.968728 0.000000
1.000000 0.974996 0.000000
0.000000 0.213830 0.000000
0.046866 0.218038 0.000000
0.088429 0.224371 0.000000
0.121804 0.237191 0.000000
0.149619 0.252986 0.000000
0.167358 0.277857 0.000000
0.178980 0.308329 0.000000
0.178909 0.349091 0.000000
0.175564 0.394488 0.000000
0.165941 0.448070 0.000000
0.158639 0.504970 0.000000
0.151345 0.575678 0.000000
0.158021 0.638787 0.000000
0.164648 0.725453 0.000000
0.186087 0.810142 0.000000
0.237191 0.878213 0.000000
0.326971 0.932074 0.000000
0.555939 0.976541 0.000000
1.000000 0.980985 0.000000
0.000000 0.283065 0.000000
0.026678 0.291366 0.000000
0.049380 0.306830 0.000000
0.067920 0.327000 0.000000
0.082725 0.350718 0.000000
0.092994 0.377347 0.000000
0.099940 0.407392 0.000000
0.100909 0.444727 0.000000
0.100792 0.486539 0.000000
0.101603 0.535526 0.000000
0.104877 0.591037 0.000000
0.111580 0.654306 0.000000
0.123857 0.716249 0.000000
0.140570 0.788046 0.000000
0.166049 0.865437 0.000000
0.224369 0.911554 0.000000
0.306860 0.950663 0.000000
0.551053 0.984459 0.000000
1.000000 0.987228 0.000000
0.000000 0.547682 0.000000
0.007700 0.547517 0.000000
0.015552 0.550876 0.000000
0.023446 0.556003 0.000000
0.031272 0.567419 0.000000
0.038654 0.586157 0.000000
0.046080 0.609390 0.000000
0.053094 0.643289 0.000000
0.060848 0.679674 0.000000
0.069376 0.716124 0.000000
0.079040 0.758372 0.000000
0.091153 0.799830 0.000000
0.106095 0.840076 0.000000
0.127206 0.881389 0.000000
0.156458 0.931070 0.000000
0.218005 0.953106 0.000000
0.291338 0.973339 0.000000
0.547600 0.992305 0.000000
1.000000 0.993646 0.000000
0.000000 1.000000 0.000000
0.006381 1.000000 0.000000
0.012800 1.000000 0.000000
0.019008 1.000000 0.000000
0.024995 1.000000 0.000000
0.030706 1.000000 0.000000
0.036693 1.000000 0.000000
0.043122 1.000000 0.000000
0.050803 1.000000 0.000000
0.059747 1.000000 0.000000
0.070372 1.000000 0.000000
0.083616 1.000000 0.000000
0.099957 1.000000 0.000000
0.121319 1.000000 0.000000
0.152186 1.000000 0.000000
0.213851 1.000000 0.000000
0.282994 1.000000 0.000000
0.547670 1.000000 0.000000
1.000000 1.000000 0.000000
0.000000 0.000000 0.055213
0.452661 0.000000 0.055067
0.716754 0.000000 0.055054
0.786052 0.000000 0.055012
0.847796 0.000000 0.054976
0.878710 0.000000 0.054966
0.900216 0.000000 0.054987
0.916395 0.000000 0.055000
0.929601 0.000000 0.055079
0.940378 0.000000 0.055116
0.949335 0.000000 0.055058
0.956972 0.000000 0.054929
0.963334 0.000000 0.054940
0.969318 0.000000 0.054898
0.975058 0.000000 0.055020
0.981009 0.000000 0.054944
0.987195 0.000000 0.055097
0.993614 0.000000 0.055116
1.000000 0.000000 0.055106
0.000000 0.006384 0.055205
0.452635 0.007741 0.055078
0.708481 0.026696 0.054987
0.781940 0.046803 0.054984
0.843581 0.069000 0.055014
0.872769 0.118475 0.054955
0.893968 0.159683 0.055011
0.908829 0.200342 0.055030
0.920932 0.241678 0.054997
0.930621 0.283960 0.054973
0.939178 0.320206 0.055012
0.946931 0.356539 0.054973
0.953913 0.390813 0.054949
0.961335 0.413987 0.055002
0.968711 0.432678 0.055006
0.976551 0.443653 0.055015
0.984452 0.448738 0.055046
0.992268 0.452766 0.055052
1.000000 0.452791 0.055070
0.000000 0.012804 0.055112
0.448820 0.015556 0.055044
0.693183 0.049442 0.055000
0.775702 0.088403 0.054991
0.833897 0.134614 0.054993
0.859459 0.211925 0.055005
0.876169 0.283602 0.054977
0.888357 0.345851 0.054982
0.895096 0.408985 0.054957
0.898418 0.464461 0.054977
0.899323 0.513222 0.055021
0.899152 0.555080 0.054996
0.899943 0.592629 0.055021
0.906889 0.622643 0.055000
0.917187 0.649255 0.055011
0.931987 0.673112 0.055009
0.950547 0.693152 0.055018
0.973292 0.708455 0.055002
1.000000 0.716760 0.055020
0.000000 0.018972 0.054936
0.443783 0.023451 0.054988
0.673111 0.067991 0.054977
0.762756 0.121798 0.054972
0.813979 0.189853 0.055015
0.835342 0.274565 0.055011
0.841993 0.361145 0.054996
0.848648 0.424383 0.055001
0.841385 0.495043 0.054992
0.834139 0.551884 0.055033
0.824441 0.605527 0.054995
0.821078 0.650876 0.055010
0.820898 0.691766 0.055002
0.832672 0.722132 0.054967
0.850398 0.747034 0.054981
0.878206 0.762770 0.054964
0.911621 0.775692 0.054967
0.953202 0.781953 0.054980
1.000000 0.786056 0.055001
0.000000 0.024901 0.054928
0.432548 0.031284 0.054964
0.649251 0.082777 0.054985
0.747019 0.149621 0.054997
0.787495 0.233662 0.054987
0.807536 0.322471 0.055002
0.800243 0.417031 0.054999
0.801169 0.484274 0.054997
0.779598 0.554345 0.055002
0.763457 0.607083 0.055004
0.748031 0.651894 0.054993
0.740570 0.689218 0.055004
0.732251 0.723665 0.055009
0.744872 0.756371 0.055024
0.766332 0.787479 0.054994
0.810157 0.813975 0.055025
0.865366 0.833904 0.055023
0.930997 0.843561 0.055005
1.000000 0.847781 0.054980
0.000000 0.030627 0.054870
0.414035 0.038674 0.054960
0.622681 0.093114 0.054996
0.722117 0.167328 0.054984
0.756376 0.255168 0.055011
0.774202 0.345844 0.055008
0.757913 0.435378 0.054972
0.752124 0.503909 0.055022
0.719960 0.562825 0.055010
0.694728 0.612220 0.054981
0.669576 0.655788 0.055002
0.653996 0.697047 0.055017
0.642011 0.736628 0.055005
0.654144 0.774198 0.054989
0.677527 0.807538 0.054994
0.725400 0.835337 0.054986
0.788099 0.859462 0.054992
0.881548 0.872836 0.054988
1.000000 0.878810 0.055041
0.000000 0.036603 0.054901
0.390678 0.046073 0.054926
0.592620 0.100024 0.055037
0.691769 0.179118 0.055010
0.723671 0.267747 0.055001
0.736621 0.358010 0.055002
0.715718 0.442207 0.054995
0.698298 0.510593 0.055000
0.655232 0.560798 0.054990
0.626557 0.607258 0.055013
0.593719 0.644178 0.055012
0.577962 0.682530 0.054987
0.557808 0.715696 0.055002
0.564661 0.757903 0.054978
0.582956 0.800232 0.055002
0.638812 0.841983 0.054995
0.716410 0.876165 0.055009
0.840261 0.894001 0.054991
1.000000 0.900234 0.054986
0.000000 0.042976 0.054944
0.356584 0.053065 0.054968
0.555132 0.100878 0.055018
0.650864 0.178903 0.055015
0.689213 0.259418 0.054989
0.697030 0.345978 0.055008
0.682565 0.422026 0.054997
0.659004 0.485861 0.054998
0.617436 0.530719 0.054991
0.579490 0.576547 0.055004
0.541615 0.615938 0.055005
0.514118 0.658995 0.055001
0.489428 0.698307 0.054993
0.496116 0.752115 0.054997
0.515724 0.801151 0.055000
0.575618 0.848659 0.054971
0.654175 0.888350 0.054986
0.799667 0.908839 0.054996
1.000000 0.916502 0.055006
0.000000 0.050633 0.055041
0.320086 0.060824 0.055020
0.513233 0.100682 0.055036
0.605522 0.175581 0.055004
0.651890 0.251914 0.055039
0.655783 0.330410 0.055011
0.644184 0.406277 0.055023
0.615954 0.458398 0.054983
0.577715 0.498978 0.054996
0.539121 0.540298 0.054996
0.501032 0.577717 0.055005
0.469299 0.617438 0.055005
0.439201 0.655245 0.055017
0.437171 0.719965 0.055020
0.445687 0.779602 0.055012
0.504945 0.841384 0.054980
0.590993 0.895063 0.054982
0.758328 0.920968 0.055007
1.000000 0.929762 0.054994
0.000000 0.059618 0.055095
0.283900 0.069395 0.054986
0.464395 0.101549 0.055032
0.551884 0.165847 0.054996
0.607087 0.236607 0.055017
0.612231 0.305298 0.055000
0.607251 0.373475 0.055018
0.576547 0.420518 0.055002
0.540309 0.460881 0.055004
0.499996 0.500013 0.055007
0.459682 0.539125 0.055003
0.423449 0.579495 0.055006
0.392748 0.626549 0.054999
0.387790 0.694760 0.054982
0.392903 0.763436 0.055016
0.448127 0.834165 0.055011
0.535535 0.898397 0.055016
0.716215 0.930610 0.055014
1.000000 0.940489 0.055088
0.000000 0.070360 0.055056
0.241764 0.079075 0.054995
0.408948 0.104922 0.054999
0.495064 0.158595 0.054993
0.554310 0.220365 0.054992
0.562819 0.280024 0.054968
0.560809 0.344761 0.055007
0.530710 0.382560 0.054991
0.498966 0.422294 0.054979
0.460886 0.459691 0.055017
0.422294 0.501041 0.054985
0.384034 0.541597 0.055007
0.355837 0.593679 0.055004
0.344225 0.669551 0.054989
0.348090 0.748014 0.054980
0.394484 0.824456 0.054992
0.486803 0.899311 0.055005
0.680086 0.939155 0.054981
1.000000 0.949453 0.055006
0.000000 0.083625 0.054988
0.200338 0.091177 0.055038
0.345859 0.111653 0.055020
0.424400 0.151375 0.055002
0.484271 0.198840 0.054998
0.503887 0.247879 0.054999
0.510591 0.301684 0.055001
0.485899 0.341001 0.054997
0.458390 0.384046 0.054995
0.420500 0.423449 0.054997
0.382570 0.469297 0.054987
0.340977 0.514115 0.054987
0.317457 0.577993 0.055023
0.302963 0.654055 0.055006
0.310761 0.740520 0.055016
0.349145 0.821102 0.054984
0.444805 0.899074 0.055002
0.643462 0.946893 0.054985
1.000000 0.957057 0.055016
0.000000 0.099812 0.055009
0.159639 0.106064 0.055028
0.283539 0.123809 0.055006
0.361118 0.158011 0.055031
0.417026 0.199757 0.055006
0.435341 0.242107 0.055021
0.442185 0.284276 0.054964
0.422059 0.317475 0.055015
0.406284 0.355827 0.055000
0.373440 0.392752 0.055013
0.344764 0.439205 0.055007
0.301690 0.489418 0.054987
0.284273 0.557813 0.055013
0.263402 0.641991 0.055011
0.276285 0.732236 0.054978
0.308305 0.820909 0.055005
0.407351 0.899968 0.054999
0.609579 0.953892 0.055032
1.000000 0.963437 0.054998
0.000000 0.121276 0.054990
0.118578 0.127246 0.054996
0.211945 0.140603 0.054956
0.274560 0.164675 0.054963
0.322499 0.192466 0.054976
0.345883 0.225787 0.055000
0.357929 0.263402 0.054994
0.345957 0.302958 0.054985
0.330435 0.344203 0.055013
0.305264 0.387779 0.055003
0.280038 0.437174 0.054982
0.247852 0.496123 0.054987
0.242123 0.564653 0.055019
0.225785 0.654137 0.054979
0.243613 0.744871 0.055008
0.277848 0.832645 0.055005
0.377283 0.906862 0.054992
0.586207 0.961283 0.055031
1.000000 0.969437 0.055000
0.000000 0.152155 0.054998
0.068940 0.156397 0.054999
0.134573 0.166118 0.055029
0.189816 0.186071 0.055012
0.233690 0.212511 0.055009
0.255130 0.243614 0.054998
0.267723 0.276290 0.055014
0.259472 0.310766 0.055010
0.251952 0.348092 0.054999
0.236587 0.392874 0.055040
0.220387 0.445657 0.054982
0.198849 0.515724 0.055004
0.199757 0.582989 0.055008
0.192468 0.677505 0.054998
0.212521 0.766341 0.054997
0.252966 0.850409 0.054986
0.350643 0.917160 0.055013
0.567546 0.968650 0.055042
1.000000 0.975156 0.054989
0.000000 0.213848 0.054971
0.046848 0.218006 0.054980
0.088410 0.224268 0.054969
0.121786 0.237211 0.055006
0.149609 0.252986 0.054970
0.167333 0.277883 0.055007
0.179054 0.308324 0.054994
0.178895 0.349127 0.055006
0.175544 0.394481 0.055010
0.165835 0.448138 0.055010
0.158611 0.504958 0.054988
0.151371 0.575597 0.054991
0.158019 0.638860 0.055021
0.164662 0.725436 0.054958
0.186054 0.810155 0.055013
0.237225 0.878231 0.054992
0.326875 0.932032 0.055042
0.556421 0.976496 0.055006
1.000000 0.981070 0.054997
0.000000 0.282925 0.054985
0.026656 0.291474 0.055027
0.049367 0.306890 0.055036
0.067965 0.326846 0.055020
0.082792 0.350656 0.055018
0.093104 0.377293 0.054998
0.100004 0.407378 0.055040
0.100916 0.444822 0.055004
0.100698 0.486784 0.054983
0.101615 0.535508 0.055028
0.104935 0.591017 0.054984
0.111670 0.654108 0.054982
0.123816 0.716446 0.055062
0.140564 0.788081 0.054940
0.166081 0.865378 0.055035
0.224278 0.911585 0.054966
0.306926 0.950636 0.055041
0.551356 0.984428 0.054996
1.000000 0.987224 0.055065
0.000000 0.547471 0.054995
0.007736 0.547688 0.054972
0.015571 0.551456 0.055024
0.023500 0.556427 0.055031
0.031338 0.567642 0.055047
0.038717 0.586198 0.055029
0.046116 0.609472 0.055021
0.053107 0.643417 0.054942
0.060835 0.679999 0.054954
0.069389 0.716139 0.055041
0.079041 0.758305 0.055004
0.091173 0.799662 0.055008
0.106025 0.840350 0.055004
0.127198 0.881463 0.054987
0.156395 0.931057 0.055007
0.218000 0.953135 0.054984
0.291481 0.973345 0.055011
0.547664 0.992263 0.054962
1.000000 0.993627 0.054963
0.000000 1.000000 0.054816
0.006376 1.000000 0.054878
0.012780 1.000000 0.055011
0.018926 1.000000 0.055052
0.024846 1.000000 0.055050
0.030567 1.000000 0.054991
0.036570 1.000000 0.054875
0.042950 1.000000 0.054949
0.050543 1.000000 0.054991
0.059506 1.000000 0.055084
0.070270 1.000000 0.054999
0.083567 1.000000 0.054981
0.099842 1.000000 0.054989
0.121205 1.000000 0.055066
0.152179 1.000000 0.054977
0.213828 1.000000 0.055006
0.282913 1.000000 0.054961
0.547522 1.000000 0.054986
1.000000 1.000000 0.054888
0.000000 0.000000 0.109982
0.452443 0.000000 0.109967
0.717170 0.000000 0.110023
0.786179 0.000000 0.109897
0.847856 0.000000 0.110069
0.878708 0.000000 0.109938
0.900151 0.000000 0.110079
0.916441 0.000000 0.110077
0.929712 0.000000 0.110000
0.940449 0.000000 0.109964
0.949441 0.000000 0.110064
0.957045 0.000000 0.109972
0.963415 0.000000 0.109902
0.969357 0.000000 0.109959
0.975058 0.000000 0.109941
0.981003 0.000000 0.110009
0.987181 0.000000 0.109912