# vtk DataFile Version 2.0
Mesh for Fierro
ASCII 
DATASET UNSTRUCTURED_GRID

POINTS 2527 float
0.000000 0.000000 0.000000
0.255177 0.000000 0.000000
0.455594 0.000000 0.000000
0.586354 0.000000 0.000000
0.677773 0.000000 0.000000
0.739232 0.000000 0.000000
0.784410 0.000000 0.000000
0.819189 0.000000 0.000000
0.848748 0.000000 0.000000
0.871397 0.000000 0.000000
0.891270 0.000000 0.000000
0.908996 0.000000 0.000000
0.924193 0.000000 0.000000
0.938244 0.000000 0.000000
0.951267 0.000000 0.000000
0.964014 0.000000 0.000000
0.976187 0.000000 0.000000
0.988216 0.000000 0.000000
1.000000 0.000000 0.000000
0.000000 0.011751 0.000000
0.253723 0.012637 0.000000
0.452543 0.019335 0.000000
0.582455 0.028291 0.000000
0.672496 0.041160 0.000000
0.733188 0.056594 0.000000
0.778415 0.075807 0.000000
0.813275 0.094818 0.000000
0.841992 0.116003 0.000000
0.865318 0.138491 0.000000
0.885502 0.158577 0.000000
0.903414 0.179695 0.000000
0.919158 0.199907 0.000000
0.933946 0.216069 0.000000
0.947798 0.229378 0.000000
0.961305 0.240460 0.000000
0.974366 0.247217 0.000000
0.987333 0.253725 0.000000
1.000000 0.255082 0.000000
0.000000 0.023792 0.000000
0.247202 0.025652 0.000000
0.443732 0.038182 0.000000
0.572571 0.055573 0.000000
0.661754 0.079839 0.000000
0.721705 0.109354 0.000000
0.765895 0.144914 0.000000
0.800015 0.180103 0.000000
0.826456 0.218249 0.000000
0.847844 0.256484 0.000000
0.865699 0.293649 0.000000
0.881707 0.328481 0.000000
0.896137 0.361519 0.000000
0.911602 0.388725 0.000000
0.927104 0.412191 0.000000
0.943968 0.431016 0.000000
0.961815 0.443705 0.000000
0.980653 0.452555 0.000000
1.000000 0.455629 0.000000
0.000000 0.035997 0.000000
0.240453 0.038708 0.000000
0.431004 0.056022 0.000000
0.557868 0.081319 0.000000
0.643963 0.114678 0.000000
0.700635 0.154745 0.000000
0.741719 0.202005 0.000000
0.773060 0.247820 0.000000
0.795241 0.298874 0.000000
0.812939 0.346090 0.000000
0.827214 0.393018 0.000000
0.842325 0.435907 0.000000
0.856576 0.477070 0.000000
0.874747 0.509220 0.000000
0.895026 0.536700 0.000000
0.918670 0.557888 0.000000
0.944427 0.572567 0.000000
0.971705 0.582452 0.000000
1.000000 0.586341 0.000000
0.000000 0.048753 0.000000
0.229447 0.052203 0.000000
0.412226 0.072909 0.000000
0.536699 0.104975 0.000000
0.620871 0.145816 0.000000
0.674994 0.195002 0.000000
0.712629 0.250488 0.000000
0.741070 0.304533 0.000000
0.756763 0.363785 0.000000
0.770663 0.416998 0.000000
0.782287 0.467268 0.000000
0.796120 0.511912 0.000000
0.808419 0.555760 0.000000
0.829724 0.590630 0.000000
0.854182 0.620883 0.000000
0.885323 0.643959 0.000000
0.920165 0.661748 0.000000
0.958838 0.672504 0.000000
1.000000 0.677772 0.000000
0.000000 0.061764 0.000000
0.216097 0.066063 0.000000
0.388697 0.088391 0.000000
0.509206 0.125253 0.000000
0.590629 0.170277 0.000000
0.641250 0.224669 0.000000
0.675874 0.283964 0.000000
0.699831 0.342726 0.000000
0.709151 0.403947 0.000000
0.719969 0.459429 0.000000
0.727046 0.512430 0.000000
0.739371 0.558677 0.000000
0.750576 0.603817 0.000000
0.775324 0.641242 0.000000
0.804996 0.674997 0.000000
0.845262 0.700630 0.000000
0.890651 0.721712 0.000000
0.943403 0.733188 0.000000
1.000000 0.739244 0.000000
0.000000 0.075827 0.000000
0.199977 0.080849 0.000000
0.361595 0.103883 0.000000
0.477087 0.143425 0.000000
0.555751 0.191583 0.000000
0.603785 0.249380 0.000000
0.636992 0.311740 0.000000
0.654240 0.373310 0.000000
0.657511 0.435061 0.000000
0.665143 0.490848 0.000000
0.667737 0.544492 0.000000
0.678609 0.592001 0.000000
0.688252 0.636991 0.000000
0.716030 0.675883 0.000000
0.749542 0.712622 0.000000
0.797999 0.741716 0.000000
0.855088 0.765885 0.000000
0.924190 0.778424 0.000000
1.000000 0.784393 0.000000
0.000000 0.090987 0.000000
0.179701 0.096622 0.000000
0.328505 0.118312 0.000000
0.435934 0.157676 0.000000
0.511894 0.203875 0.000000
0.558681 0.260639 0.000000
0.591982 0.321409 0.000000
0.606073 0.380865 0.000000
0.607406 0.439922 0.000000
0.610866 0.498229 0.000000
0.611331 0.553514 0.000000
0.619118 0.606049 0.000000
0.626693 0.654234 0.000000
0.657264 0.699826 0.000000
0.695468 0.741071 0.000000
0.752173 0.773064 0.000000
0.819883 0.800006 0.000000
0.905175 0.813262 0.000000
1.000000 0.819180 0.000000
0.000000 0.108745 0.000000
0.158575 0.114488 0.000000
0.293659 0.134297 0.000000
0.393028 0.172789 0.000000
0.467270 0.217718 0.000000
0.512417 0.272950 0.000000
0.544488 0.332280 0.000000
0.553515 0.388670 0.000000
0.555369 0.444432 0.000000
0.556091 0.500539 0.000000
0.555599 0.555381 0.000000
0.560044 0.607402 0.000000
0.564961 0.657477 0.000000
0.596047 0.709172 0.000000
0.636222 0.756755 0.000000
0.701118 0.795243 0.000000
0.781765 0.826428 0.000000
0.883972 0.841991 0.000000
1.000000 0.848790 0.000000
0.000000 0.128602 0.000000
0.138487 0.134668 0.000000
0.256452 0.152154 0.000000
0.346088 0.187052 0.000000
0.416993 0.229343 0.000000
0.459421 0.280016 0.000000
0.490883 0.334866 0.000000
0.498241 0.389150 0.000000
0.500515 0.443900 0.000000
0.499996 0.500004 0.000000
0.499482 0.556108 0.000000
0.501756 0.610874 0.000000
0.509144 0.665128 0.000000
0.540579 0.719977 0.000000
0.582979 0.770667 0.000000
0.653920 0.812941 0.000000
0.743497 0.847809 0.000000
0.861441 0.865251 0.000000
1.000000 0.871315 0.000000
0.000000 0.151306 0.000000
0.116021 0.158024 0.000000
0.218253 0.173557 0.000000
0.298877 0.204753 0.000000
0.363811 0.243251 0.000000
0.403947 0.290841 0.000000
0.435051 0.342501 0.000000
0.439950 0.392587 0.000000
0.444399 0.444634 0.000000
0.443915 0.499483 0.000000
0.444615 0.555590 0.000000
0.446482 0.611346 0.000000
0.455510 0.667711 0.000000
0.487585 0.727067 0.000000
0.532753 0.782282 0.000000
0.606964 0.827234 0.000000
0.706461 0.865723 0.000000
0.841372 0.885456 0.000000
1.000000 0.891055 0.000000
0.000000 0.180804 0.000000
0.094810 0.186724 0.000000
0.180094 0.199986 0.000000
0.247816 0.226943 0.000000
0.304540 0.258924 0.000000
0.342723 0.300165 0.000000
0.373308 0.345750 0.000000
0.380872 0.393936 0.000000
0.388671 0.446490 0.000000
0.389124 0.501771 0.000000
0.392594 0.560051 0.000000
0.393943 0.619134 0.000000
0.408003 0.678612 0.000000
0.441337 0.739358 0.000000
0.488083 0.796128 0.000000
0.564050 0.842302 0.000000
0.671520 0.881651 0.000000
0.820360 0.903448 0.000000
1.000000 0.909098 0.000000
0.000000 0.215595 0.000000
0.075793 0.221559 0.000000
0.144946 0.234108 0.000000
0.202032 0.258292 0.000000
0.250510 0.287397 0.000000
0.283955 0.324145 0.000000
0.311766 0.363018 0.000000
0.321392 0.408011 0.000000
0.332286 0.455524 0.000000
0.334876 0.509132 0.000000
0.342520 0.564963 0.000000
0.345759 0.626687 0.000000
0.363002 0.688227 0.000000
0.396195 0.750598 0.000000
0.444217 0.808404 0.000000
0.522923 0.856592 0.000000
0.638577 0.896142 0.000000
0.800051 0.919232 0.000000
1.000000 0.923984 0.000000
0.000000 0.260788 0.000000
0.056618 0.266818 0.000000
0.109343 0.278280 0.000000
0.154717 0.299360 0.000000
0.194979 0.324982 0.000000
0.224687 0.358732 0.000000
0.249389 0.396205 0.000000
0.260651 0.441326 0.000000
0.272926 0.487573 0.000000
0.280027 0.540587 0.000000
0.290823 0.596034 0.000000
0.300171 0.657264 0.000000
0.324133 0.716048 0.000000
0.358737 0.775320 0.000000
0.409416 0.829719 0.000000
0.490773 0.874783 0.000000
0.611378 0.911507 0.000000
0.783954 0.933941 0.000000
1.000000 0.938175 0.000000
0.000000 0.322187 0.000000
0.041155 0.327487 0.000000
0.079837 0.338249 0.000000
0.114706 0.356050 0.000000
0.145851 0.379132 0.000000
0.170285 0.409404 0.000000
0.191597 0.444222 0.000000
0.203865 0.488096 0.000000
0.217721 0.532746 0.000000
0.229336 0.582992 0.000000
0.243253 0.636205 0.000000
0.258926 0.695476 0.000000
0.287391 0.749477 0.000000
0.324987 0.805016 0.000000
0.379124 0.854151 0.000000
0.463256 0.895053 0.000000
0.587923 0.927005 0.000000
0.770604 0.947915 0.000000
1.000000 0.951324 0.000000
0.000000 0.413645 0.000000
0.028293 0.417524 0.000000
0.055566 0.427425 0.000000
0.081288 0.442098 0.000000
0.104939 0.463264 0.000000
0.125223 0.490764 0.000000
0.143403 0.522947 0.000000
0.157692 0.564056 0.000000
0.172766 0.606955 0.000000
0.187063 0.653911 0.000000
0.204757 0.701122 0.000000
0.226932 0.752172 0.000000
0.258292 0.797983 0.000000
0.299364 0.845277 0.000000
0.356050 0.885309 0.000000
0.442098 0.918697 0.000000
0.568970 0.943921 0.000000
0.759398 0.961339 0.000000
1.000000 0.963867 0.000000
0.000000 0.544297 0.000000
0.019343 0.547401 0.000000
0.038197 0.556267 0.000000
0.056096 0.568982 0.000000
0.073025 0.587918 0.000000
0.088496 0.611383 0.000000
0.103862 0.638560 0.000000
0.118367 0.671538 0.000000
0.134289 0.706445 0.000000
0.152205 0.743505 0.000000
0.173576 0.781770 0.000000
0.200000 0.819888 0.000000
0.234119 0.855063 0.000000
0.278276 0.890665 0.000000
0.338254 0.920157 0.000000
0.427422 0.944433 0.000000
0.556286 0.961794 0.000000
0.752444 0.974459 0.000000
1.000000 0.976051 0.000000
0.000000 0.744835 0.000000
0.012664 0.746065 0.000000
0.025531 0.752400 0.000000
0.038661 0.759337 0.000000
0.052105 0.770602 0.000000
0.066060 0.783924 0.000000
0.080756 0.799920 0.000000
0.096565 0.820317 0.000000
0.114544 0.841302 0.000000
0.134747 0.861457 0.000000
0.158007 0.883957 0.000000
0.186735 0.905179 0.000000
0.221577 0.924206 0.000000
0.266812 0.943383 0.000000
0.327488 0.958846 0.000000
0.417527 0.971707 0.000000
0.547390 0.980661 0.000000
0.746103 0.987357 0.000000
1.000000 0.988117 0.000000
0.000000 1.000000 0.000000
0.011935 1.000000 0.000000
0.023916 1.000000 0.000000
0.036130 1.000000 0.000000
0.048725 1.000000 0.000000
0.061895 1.000000 0.000000
0.076022 1.000000 0.000000
0.090923 1.000000 0.000000
0.108954 1.000000 0.000000
0.128688 1.000000 0.000000
0.151216 1.000000 0.000000
0.180817 1.000000 0.000000
0.215622 1.000000 0.000000
0.260777 1.000000 0.000000
0.322188 1.000000 0.000000
0.413641 1.000000 0.000000
0.544273 1.000000 0.000000
0.744906 1.000000 0.000000
1.000000 1.000000 0.000000
0.000000 0.000000 0.055125
0.255194 0.000000 0.054985
0.455547 0.000000 0.054976
0.586380 0.000000 0.055003
0.677760 0.000000 0.054991
[...]
POINT_DATA 2527 
VECTORS pos float 
0.000000 0.000000 0.000000
0.255177 0.000000 0.000000
0.455594 0.000000 0.000000
0.586354 0.000000 0.000000
0.677773 0.000000 0.000000
0.739232 0.000000 0.000000
0.784410 0.000000 0.000000
0.819189 0.000000 0.000000
0.848748 0.000000 0.000000
0.871397 0.000000 0.000000
0.891270 0.000000 0.000000
0.908996 0.000000 0.000000
0.924193 0.000000 0.000000
0.938244 0.000000 0.000000
0.951267 0.000000 0.000000
0.964014 0.000000 0.000000
0.976187 0.000000 0.000000
0.988216 0.000000 0.000000
1.000000 0.000000 0.000000
0.000000 0.011751 0.000000
0.253723 0.012637 0.000000
0.452543 0.019335 0.000000
0.582455 0.028291 0.000000
0.672496 0.041160 0.000000
0.733188 0.056594 0.000000
0.778415 0.075807 0.000000
0.813275 0.094818 0.000000
0.841992 0.116003 0.000000
0.865318 0.138491 0.000000
0.885502 0.158577 0.000000
0.903414 0.179695 0.000000
0.919158 0.199907 0.000000
0.933946 0.216069 0.000000
0.947798 0.229378 0.000000
0.961305 0.240460 0.000000
0.974366 0.247217 0.000000
0.987333 0.253725 0.000000
1.000000 0.255082 0.000000
0.000000 0.023792 0.000000
0.247202 0.025652 0.000000
0.443732 0.038182 0.000000
0.572571 0.055573 0.000000
0.661754 0.079839 0.000000
0.721705 0.109354 0.000000
0.765895 0.144914 0.000000
0.800015 0.180103 0.000000
0.826456 0.218249 0.000000
0.847844 0.256484 0.000000
0.865699 0.293649 0.000000
0.881707 0.328481 0.000000
0.896137 0.361519 0.000000
0.911602 0.388725 0.000000
0.927104 0.412191 0.000000
0.943968 0.431016 0.000000
0.961815 0.443705 0.000000
0.980653 0.452555 0.000000
1.000000 0.455629 0.000000
0.000000 0.035997 0.000000
0.240453 0.038708 0.000000
0.431004 0.056022 0.000000
0.557868 0.081319 0.000000
0.643963 0.114678 0.000000
0.700635 0.154745 0.000000
0.741719 0.202005 0.000000
0.773060 0.247820 0.000000
0.795241 0.298874 0.000000
0.812939 0.346090 0.000000
0.827214 0.393018 0.000000
0.842325 0.435907 0.000000
0.856576 0.477070 0.000000
0.874747 0.509220 0.000000
0.895026 0.536700 0.000000
0.918670 0.557888 0.000000
0.944427 0.572567 0.000000
0.971705 0.582452 0.000000
1.000000 0.586341 0.000000
0.000000 0.048753 0.000000
0.229447 0.052203 0.000000
0.412226 0.072909 0.000000
0.536699 0.104975 0.000000
0.620871 0.145816 0.000000
0.674994 0.195002 0.000000
0.712629 0.250488 0.000000
0.741070 0.304533 0.000000
0.756763 0.363785 0.000000
0.770663 0.416998 0.000000
0.782287 0.467268 0.000000
0.796120 0.511912 0.000000
0.808419 0.555760 0.000000
0.829724 0.590630 0.000000
0.854182 0.620883 0.000000
0.885323 0.643959 0.000000
0.920165 0.661748 0.000000
0.958838 0.672504 0.000000
1.000000 0.677772 0.000000
0.000000 0.061764 0.000000
0.216097 0.066063 0.000000
0.388697 0.088391 0.000000
0.509206 0.125253 0.000000
0.590629 0.170277 0.000000
0.641250 0.224669 0.000000
0.675874 0.283964 0.000000
0.699831 0.342726 0.000000
0.709151 0.403947 0.000000
0.719969 0.459429 0.000000
0.727046 0.512430 0.000000
0.739371 0.558677 0.000000
0.750576 0.603817 0.000000
0.775324 0.641242 0.000000
0.804996 0.674997 0.000000
0.845262 0.700630 0.000000
0.890651 0.721712 0.000000
0.943403 0.733188 0.000000
1.000000 0.739244 0.000000
0.000000 0.075827 0.000000
0.199977 0.080849 0.000000
0.361595 0.103883 0.000000
0.477087 0.143425 0.000000
0.555751 0.191583 0.000000
0.603785 0.249380 0.000000
0.636992 0.311740 0.000000
0.654240 0.373310 0.000000
0.657511 0.435061 0.000000
0.665143 0.490848 0.000000
0.667737 0.544492 0.000000
0.678609 0.592001 0.000000
0.688252 0.636991 0.000000
0.716030 0.675883 0.000000
0.749542 0.712622 0.000000
0.797999 0.741716 0.000000
0.855088 0.765885 0.000000
0.924190 0.778424 0.000000
1.000000 0.784393 0.000000
0.000000 0.090987 0.000000
0.179701 0.096622 0.000000
0.328505 0.118312 0.000000
0.435934 0.157676 0.000000
0.511894 0.203875 0.000000
0.558681 0.260639 0.000000
0.591982 0.321409 0.000000
0.606073 0.380865 0.000000
0.607406 0.439922 0.000000
0.610866 0.498229 0.000000
0.611331 0.553514 0.000000
0.619118 0.606049 0.000000
0.626693 0.654234 0.000000
0.657264 0.699826 0.000000
0.695468 0.741071 0.000000
0.752173 0.773064 0.000000
0.819883 0.800006 0.000000
0.905175 0.813262 0.000000
1.000000 0.819180 0.000000
0.000000 0.108745 0.000000
0.158575 0.114488 0.000000
0.293659 0.134297 0.000000
0.393028 0.172789 0.000000
0.467270 0.217718 0.000000
0.512417 0.272950 0.000000
0.544488 0.332280 0.000000
0.553515 0.388670 0.000000
0.555369 0.444432 0.000000
0.556091 0.500539 0.000000
0.555599 0.555381 0.000000
0.560044 0.607402 0.000000
0.564961 0.657477 0.000000
0.596047 0.709172 0.000000
0.636222 0.756755 0.000000
0.701118 0.795243 0.000000
0.781765 0.826428 0.000000
0.883972 0.841991 0.000000
1.000000 0.848790 0.000000
0.000000 0.128602 0.000000
0.138487 0.134668 0.000000
0.256452 0.152154 0.000000
0.346088 0.187052 0.000000
0.416993 0.229343 0.000000
0.459421 0.280016 0.000000
0.490883 0.334866 0.000000
0.498241 0.389150 0.000000
0.500515 0.443900 0.000000
0.499996 0.500004 0.000000
0.499482 0.556108 0.000000
0.501756 0.610874 0.000000
0.509144 0.665128 0.000000
0.540579 0.719977 0.000000
0.582979 0.770667 0.000000
0.653920 0.812941 0.000000
0.743497 0.847809 0.000000
0.861441 0.865251 0.000000
1.000000 0.871315 0.000000
0.000000 0.151306 0.000000
0.116021 0.158024 0.000000
0.218253 0.173557 0.000000
0.298877 0.204753 0.000000
0.363811 0.243251 0.000000
0.403947 0.290841 0.000000
0.435051 0.342501 0.000000
0.439950 0.392587 0.000000
0.444399 0.444634 0.000000
0.443915 0.499483 0.000000
0.444615 0.555590 0.000000
0.446482 0.611346 0.000000
0.455510 0.667711 0.000000
0.487585 0.727067 0.000000
0.532753 0.782282 0.000000
0.606964 0.827234 0.000000
0.706461 0.865723 0.000000
0.841372 0.885456 0.000000
1.000000 0.891055 0.000000
0.000000 0.180804 0.000000
0.094810 0.186724 0.000000
0.180094 0.199986 0.000000
0.247816 0.226943 0.000000
0.304540 0.258924 0.000000
0.342723 0.300165 0.000000
0.373308 0.345750 0.000000
0.380872 0.393936 0.000000
0.388671 0.446490 0.000000
0.389124 0.501771 0.000000
0.392594 0.560051 0.000000
0.393943 0.619134 0.000000
0.408003 0.678612 0.000000
0.441337 0.739358 0.000000
0.488083 0.796128 0.000000
0.564050 0.842302 0.000000
0.671520 0.881651 0.000000
0.820360 0.903448 0.000000
1.000000 0.909098 0.000000
0.000000 0.215595 0.000000
0.075793 0.221559 0.000000
0.144946 0.234108 0.000000
0.202032 0.258292 0.000000
0.250510 0.287397 0.000000
0.283955 0.324145 0.000000
0.311766 0.363018 0.000000
0.321392 0.408011 0.000000
0.332286 0.455524 0.000000
0.334876 0.509132 0.000000
0.342520 0.564963 0.000000
0.345759 0.626687 0.000000
0.363002 0.688227 0.000000
0.396195 0.750598 0.000000
0.444217 0.808404 0.000000
0.522923 0.856592 0.000000
0.638577 0.896142 0.000000
0.800051 0.919232 0.000000
1.000000 0.923984 0.000000
0.000000 0.260788 0.000000
0.056618 0.266818 0.000000
0.109343 0.278280 0.000000
0.154717 0.299360 0.000000
0.194979 0.324982 0.000000
0.224687 0.358732 0.000000
0.249389 0.396205 0.000000
0.260651 0.441326 0.000000
0.272926 0.487573 0.000000
0.280027 0.540587 0.000000
0.290823 0.596034 0.000000
0.300171 0.657264 0.000000
0.324133 0.716048 0.000000
0.358737 0.775320 0.000000
0.409416 0.829719 0.000000
0.490773 0.874783 0.000000
0.611378 0.911507 0.000000
0.783954 0.933941 0.000000
1.000000 0.938175 0.000000
0.000000 0.322187 0.000000
0.041155 0.327487 0.000000
0.079837 0.338249 0.000000
0.114706 0.356050 0.000000
0.145851 0.379132 0.000000
0.170285 0.409404 0.000000
0.191597 0.444222 0.000000
0.203865 0.488096 0.000000
0.217721 0.532746 0.000000
0.229336 0.582992 0.000000
0.243253 0.636205 0.000000
0.258926 0.695476 0.000000
0.287391 0.749477 0.000000
0.324987 0.805016 0.000000
0.379124 0.854151 0.000000
0.463256 0.895053 0.000000
0.587923 0.927005 0.000000
0.770604 0.947915 0.000000
1.000000 0.951324 0.000000
0.000000 0.413645 0.000000
0.028293 0.417524 0.000000
0.055566 0.427425 0.000000
0.081288 0.442098 0.000000
0.104939 0.463264 0.000000
0.125223 0.490764 0.000000
0.143403 0.522947 0.000000
0.157692 0.564056 0.000000
0.172766 0.606955 0.000000
0.187063 0.653911 0.000000
0.204757 0.701122 0.000000
0.226932 0.752172 0.000000
0.258292 0.797983 0.000000
0.299364 0.845277 0.000000
0.356050 0.885309 0.000000
0.442098 0.918697 0.000000
0.568970 0.943921 0.000000
0.759398 0.961339 0.000000
1.000000 0.963867 0.000000
0.000000 0.544297 0.000000
0.019343 0.547401 0.000000
0.038197 0.556267 0.000000
0.056096 0.568982 0.000000
0.073025 0.587918 0.000000
0.088496 0.611383 0.000000
0.103862 0.638560 0.000000
0.118367 0.671538 0.000000
0.134289 0.706445 0.000000
0.152205 0.743505 0.000000
0.173576 0.781770 0.000000
0.200000 0.819888 0.000000
0.234119 0.855063 0.000000
0.278276 0.890665 0.000000
0.338254 0.920157 0.000000
0.427422 0.944433 0.000000
0.556286 0.961794 0.000000
0.752444 0.974459 0.000000
1.000000 0.976051 0.000000
0.000000 0.744835 0.000000
0.012664 0.746065 0.000000
0.025531 0.752400 0.000000
0.038661 0.759337 0.000000
0.052105 0.770602 0.000000
0.066060 0.783924 0.000000
0.080756 0.799920 0.000000
0.096565 0.820317 0.000000
0.114544 0.841302 0.000000
0.134747 0.861457 0.000000
0.158007 0.883957 0.000000
0.186735 0.905179 0.000000
0.221577 0.924206 0.000000
0.266812 0.943383 0.000000
0.327488 0.958846 0.000000
0.417527 0.971707 0.000000
0.547390 0.980661 0.000000
0.746103 0.987357 0.000000
1.000000 0.988117 0.000000
0.000000 1.000000 0.000000
0.011935 1.000000 0.000000
0.023916 1.000000 0.000000
0.036130 1.000000 0.000000
0.048725 1.000000 0.000000
0.061895 1.000000 0.000000
0.076022 1.000000 0.000000
0.090923 1.000000 0.000000
0.108954 1.000000 0.000000
0.128688 1.000000 0.000000
0.151216 1.000000 0.000000
0.180817 1.000000 0.000000
0.215622 1.000000 0.000000
0.260777 1.000000 0.000000
0.322188 1.000000 0.000000
0.413641 1.000000 0.000000
0.544273 1.000000 0.000000
0.744906 1.000000 0.000000
1.000000 1.000000 0.000000
0.000000 0.000000 0.055125
0.255194 0.000000 0.054985
0.455547 0.000000 0.054976
0.586380 0.000000 0.055003
0.677760 0.000000 0.054991
0.739228 0.000000 0.055007
0.784411 0.000000 0.054998
0.819190 0.000000 0.054997
0.848750 0.000000 0.055009
0.871383 0.000000 0.055010
0.891145 0.000000 0.054986
0.909073 0.000000 0.054985
0.924044 0.000000 0.054914
0.938329 0.000000 0.054972
0.951387 0.000000 0.055121
0.964011 0.000000 0.054956
0.976247 0.000000 0.055007
0.988235 0.000000 0.055023
1.000000 0.000000 0.055092
0.000000 0.011759 0.055053
0.253865 0.012655 0.055013
0.452580 0.019328 0.055001
0.582466 0.028290 0.054996
0.672506 0.041159 0.054999
0.733178 0.056600 0.054995
0.778440 0.075796 0.054998
0.813262 0.094826 0.055008
0.842002 0.116011 0.054995
0.865299 0.138547 0.054994
0.885519 0.158636 0.055001
0.903440 0.179623 0.055000
0.919212 0.200128 0.055000
0.934003 0.216222 0.055020
0.947914 0.229491 0.055006
0.961326 0.240609 0.055003
0.974430 0.247467 0.054994
0.987349 0.253895 0.055004
1.000000 0.255286 0.055007
0.000000 0.023735 0.054993
0.247444 0.025575 0.055005
0.443748 0.038175 0.055004
0.572569 0.055567 0.055000
0.661755 0.079840 0.054990
0.721718 0.109348 0.055002
0.765887 0.144928 0.054997
0.800011 0.180102 0.055000
0.826437 0.218234 0.054993
0.847818 0.256477 0.054987
0.865708 0.293591 0.055005
0.881656 0.328380 0.055002
0.896083 0.361595 0.055012
0.911544 0.388640 0.055003
0.927032 0.412127 0.055004
0.943947 0.430981 0.055005
0.961823 0.443720 0.054995
0.980670 0.452586 0.054994
1.000000 0.455534 0.054979
0.000000 0.035975 0.054925
0.240609 0.038678 0.055003
0.430982 0.056042 0.055012
0.557865 0.081307 0.054989
0.643985 0.114686 0.055004
0.700631 0.154737 0.054997
0.741716 0.202012 0.055002
0.773061 0.247816 0.055001
0.795242 0.298883 0.055000
0.812942 0.346087 0.055006
0.827226 0.393004 0.055013
0.842311 0.435928 0.054997
0.856562 0.477116 0.054994
0.874775 0.509224 0.054992
0.895059 0.536713 0.054996
0.918705 0.557864 0.054995
0.944440 0.572577 0.054999
0.971712 0.582468 0.055000
1.000000 0.586385 0.055013
0.000000 0.048607 0.055077
0.229467 0.052084 0.054993
0.412134 0.072954 0.055007
0.536703 0.104945 0.054999
0.620869 0.145823 0.055009
0.675003 0.195000 0.054992
0.712617 0.250462 0.055006
0.741077 0.304543 0.055001
0.756745 0.363796 0.054999
0.770662 0.416998 0.054998
0.782283 0.467247 0.054992
0.796121 0.511904 0.054999
0.808424 0.555757 0.055000
0.829721 0.590606 0.055010
0.854169 0.620866 0.055013
0.885312 0.643978 0.055005
0.920152 0.661753 0.054994
0.958841 0.672507 0.054995
1.000000 0.677759 0.054977
0.000000 0.061646 0.054986
0.216257 0.066008 0.055001
0.388638 0.088451 0.054992
0.509236 0.125232 0.055001
0.590604 0.170279 0.055004
0.641267 0.224670 0.054991
0.675850 0.283996 0.055002
0.699834 0.342721 0.055001
0.709159 0.403979 0.055006
0.719994 0.459420 0.054996
0.727077 0.512408 0.055000
0.739347 0.558689 0.055009
0.750642 0.603775 0.055002
0.775330 0.641272 0.054991
0.805006 0.675008 0.054989
0.845262 0.700634 0.054996
0.890654 0.721717 0.055004
0.943403 0.733177 0.054996
1.000000 0.739237 0.055014
0.000000 0.075916 0.054951
0.200068 0.080780 0.055003
0.361569 0.103904 0.055016
0.477125 0.143437 0.054997
0.555760 0.191588 0.055007
0.603797 0.249383 0.055004
0.636973 0.311742 0.055006
0.654245 0.373324 0.055001
0.657503 0.435038 0.055001
0.665127 0.490865 0.055003
0.667729 0.544503 0.055000
0.678575 0.591996 0.055002
0.688251 0.636975 0.055009
0.716013 0.675845 0.055002
0.749508 0.712616 0.055010
0.797981 0.741717 0.054997
0.855075 0.765885 0.054994
0.924202 0.778426 0.055007
1.000000 0.784402 0.054987
0.000000 0.090903 0.054976
0.179645 0.096568 0.055000
0.328406 0.118344 0.055001
0.435923 0.157681 0.055005
0.511902 0.203880 0.054999
0.558675 0.260647 0.055001
0.591992 0.321395 0.054995
0.606067 0.380877 0.054997
0.607399 0.439936 0.054995
0.610870 0.498224 0.054996
0.611343 0.553505 0.055003
0.619116 0.606066 0.054997
0.626678 0.654250 0.054993
0.657287 0.699839 0.054999
0.695456 0.741078 0.054999
0.752179 0.773062 0.054999
0.819900 0.800011 0.055013
0.905175 0.813282 0.055002
1.000000 0.819216 0.054994
0.000000 0.108840 0.054980
0.158587 0.114482 0.054994
0.293602 0.134298 0.054999
0.393020 0.172783 0.055005
0.467235 0.217702 0.055006
0.512403 0.272927 0.055000
0.544505 0.332275 0.055007
0.553519 0.388664 0.054995
0.555369 0.444412 0.055000
0.556103 0.500522 0.055005
0.555587 0.555369 0.055010
0.560074 0.607403 0.055007
0.564957 0.657510 0.054996
0.596030 0.709147 0.055007
0.636200 0.756749 0.055003
0.701115 0.795244 0.054996
0.781759 0.826435 0.054998
0.883973 0.841994 0.055006
1.000000 0.848748 0.054987
0.000000 0.128641 0.055012
0.138535 0.134701 0.055000
0.256477 0.152174 0.054993
0.346079 0.187056 0.054998
0.417017 0.229344 0.055004
0.459442 0.280018 0.055004
0.490860 0.334885 0.055004
0.498234 0.389124 0.055001
0.500519 0.443897 0.055002
0.500004 0.500006 0.055001
0.499473 0.556105 0.055003
0.501772 0.610872 0.054998
0.509134 0.665136 0.055002
0.540593 0.719992 0.054997
0.583021 0.770673 0.054993
0.653913 0.812944 0.055000
0.743524 0.847821 0.055015
0.861449 0.865321 0.055006
1.000000 0.871420 0.054988
0.000000 0.151250 0.055028
0.116009 0.158003 0.055001
0.218242 0.173560 0.054996
0.298882 0.204758 0.054998
0.363788 0.243249 0.054997
0.403963 0.290836 0.055002
0.435040 0.342496 0.054993
0.439927 0.392600 0.055002
0.444421 0.444626 0.054996
0.443899 0.499482 0.055008
0.444630 0.555583 0.054998
0.446481 0.611338 0.055003
0.455482 0.667709 0.055001
0.487592 0.727053 0.054996
0.532713 0.782273 0.055002
0.607007 0.827235 0.054984
0.706384 0.865728 0.054991
0.841406 0.885520 0.055024
1.000000 0.891183 0.055042
0.000000 0.180832 0.054997
0.094826 0.186740 0.055003
0.180102 0.199991 0.055001
0.247814 0.226939 0.055006
0.304537 0.258925 0.055001
0.342719 0.300167 0.054995
0.373320 0.345752 0.055000
0.380886 0.393931 0.054998
0.388656 0.446489 0.055004
0.389123 0.501766 0.054996
0.392604 0.560071 0.055004
0.393925 0.619129 0.054991
0.408014 0.678602 0.055009
0.441326 0.739366 0.055007
0.488096 0.796132 0.055002
0.564072 0.842318 0.055006
0.671568 0.881679 0.054990
0.820345 0.903416 0.055011
1.000000 0.909064 0.055119
0.000000 0.215585 0.055008
0.075794 0.221565 0.055001
0.144917 0.234107 0.055003
0.202011 0.258281 0.054999
0.250469 0.287378 0.054997
0.283977 0.324149 0.055002
0.311735 0.363020 0.055001
0.321417 0.408001 0.054995
0.332289 0.455491 0.054999
0.334868 0.509154 0.055003
0.342498 0.564951 0.055001
0.345751 0.626686 0.054994
0.363021 0.688250 0.055009
0.396219 0.750619 0.055005
0.444204 0.808416 0.054983
0.522938 0.856572 0.055007
0.638444 0.896131 0.054983
0.799995 0.919219 0.055015
1.000000 0.924117 0.054991
0.000000 0.260766 0.054993
0.056609 0.266824 0.055000
0.109358 0.278292 0.054995
0.154746 0.299369 0.054993
0.194997 0.324994 0.055004
0.224683 0.358730 0.055001
0.249348 0.396241 0.055003
0.260649 0.441323 0.055001
0.272935 0.487590 0.055000
0.280013 0.540554 0.055000
0.290839 0.596040 0.054998
0.300168 0.657282 0.054998
0.324146 0.716036 0.054998
0.358731 0.775323 0.055001
0.409375 0.829723 0.054995
0.490787 0.874761 0.055002
0.611287 0.911582 0.055000
0.783937 0.933987 0.054992
1.000000 0.938286 0.054955
0.000000 0.322220 0.055008
0.041145 0.327482 0.055000
0.079838 0.338242 0.055014
0.114681 0.356032 0.055000
0.145830 0.379136 0.054994
0.170277 0.409373 0.054994
0.191568 0.444224 0.054997
0.203873 0.488086 0.055002
0.217709 0.532745 0.055011
0.229335 0.582996 0.054999
0.243247 0.636205 0.054997
0.258922 0.695461 0.055001
0.287383 0.749515 0.054996
0.324995 0.805006 0.055006
0.379135 0.854167 0.054991
0.463287 0.895051 0.055009
0.587837 0.927061 0.054988
0.770563 0.947868 0.055003
1.000000 0.951356 0.054980
0.000000 0.413619 0.054998
0.028298 0.417527 0.054997
0.055564 0.427416 0.054995
0.081301 0.442119 0.055008
0.104955 0.463276 0.055004
0.125234 0.490801 0.055002
0.143421 0.522940 0.054997
0.157684 0.564069 0.055009
0.172767 0.606995 0.054985
0.187058 0.653919 0.054998
0.204753 0.701116 0.054996
0.226938 0.752180 0.055003
0.258279 0.797985 0.054994
0.299366 0.845258 0.054995
0.356028 0.885313 0.055000
0.442118 0.918701 0.055012
0.569022 0.943960 0.054995
0.759509 0.961303 0.054976
1.000000 0.964053 0.055026
0.000000 0.544394 0.055017
0.019325 0.547435 0.054999
0.038169 0.556279 0.054991
0.056037 0.569002 0.054996
0.072926 0.587850 0.055000
0.088413 0.611299 0.055004
0.103865 0.638436 0.055002
0.118325 0.671554 0.054999
0.134261 0.706407 0.054993
0.152178 0.743519 0.055022
0.173563 0.781757 0.054998
0.199990 0.819900 0.055010
0.234110 0.855085 0.054996
0.278293 0.890642 0.054998
0.338244 0.920165 0.055012
0.427418 0.944437 0.054996
0.556277 0.961829 0.054991
0.752649 0.974409 0.054995
1.000000 0.976288 0.055022
0.000000 0.744773 0.055014
0.012646 0.746229 0.054995
0.025593 0.752690 0.055014
0.038693 0.759559 0.054975
0.052120 0.770589 0.055011
0.066010 0.783938 0.054993
0.080785 0.799975 0.055018
0.096572 0.820337 0.055002
0.114482 0.841385 0.055005
0.134681 0.861446 0.055010
0.158009 0.883983 0.055003
0.186714 0.905176 0.055006
0.221588 0.924217 0.055003
0.266820 0.943393 0.055000
0.327484 0.958855 0.054999
0.417529 0.971702 0.054998
0.547432 0.980670 0.054997
0.746219 0.987342 0.055001
1.000000 0.988222 0.054928
0.000000 1.000000 0.054764
0.011787 1.000000 0.054892
0.023719 1.000000 0.055035
0.035916 1.000000 0.055038
0.048594 1.000000 0.055000
0.061727 1.000000 0.054994
0.075873 1.000000 0.054967
0.090934 1.000000 0.055056
0.108819 1.000000 0.055016
0.128577 1.000000 0.054996
0.151258 1.000000 0.054993
0.180777 1.000000 0.054999
0.215623 1.000000 0.055000
0.260764 1.000000 0.055001
0.322224 1.000000 0.054997
0.413627 1.000000 0.055009
0.544397 1.000000 0.055011
0.744792 1.000000 0.055024
1.000000 1.000000 0.054849
0.000000 0.000000 0.109947
0.255170 0.000000 0.110029
0.455674 0.000000 0.110021
0.586374 0.000000 0.109998
0.677785 0.000000 0.110007
0.739237 0.000000 0.109995
0.784384 0.000000 0.110004
0.819207 0.000000 0.110009
0.848739 0.000000 0.109987
0.871412 0.000000 0.109992
0.891164 0.000000 0.110046
0.909086 0.000000 0.109974
0.924040 0.000000 0.109982
0.938235 0.000000 0.109979
0.951373 0.000000 0.109911
0.963987 0.000000 0.110013
0.976211 0.000000 0.109961