# vtk DataFile Version 2.0
Mesh for Fierro
ASCII 
DATASET UNSTRUCTURED_GRID

POINTS 2527 float
0.000000 0.000000 0.000000
0.506308 0.000000 0.000000
0.831040 0.000000 0.000000
0.864103 0.000000 0.000000
0.896649 0.000000 0.000000
0.915659 0.000000 0.000000
0.928970 0.000000 0.000000
0.939955 0.000000 0.000000
0.949565 0.000000 0.000000
0.957509 0.000000 0.000000
0.963860 0.000000 0.000000
0.969090 0.000000 0.000000
0.973273 0.000000 0.000000
0.977275 0.000000 0.000000
0.981328 0.000000 0.000000
0.986198 0.000000 0.000000
0.991158 0.000000 0.000000
0.996152 0.000000 0.000000
1.000000 0.000000 0.000000
0.000000 0.003834 0.000000
0.511618 0.006742 0.000000
0.810385 0.032330 0.000000
0.839291 0.082535 0.000000
0.884193 0.086133 0.000000
0.902206 0.168308 0.000000
0.916393 0.214016 0.000000
0.925947 0.266001 0.000000
0.933247 0.318153 0.000000
0.939273 0.368870 0.000000
0.945150 0.412264 0.000000
0.950761 0.455017 0.000000
0.956102 0.493244 0.000000
0.962553 0.517980 0.000000
0.969448 0.536136 0.000000
0.977644 0.538310 0.000000
0.985543 0.534817 0.000000
0.993254 0.511616 0.000000
1.000000 0.505673 0.000000
0.000000 0.008819 0.000000
0.534207 0.014471 0.000000
0.783919 0.053448 0.000000
0.816829 0.128808 0.000000
0.875516 0.171400 0.000000
0.886505 0.290365 0.000000
0.895684 0.375122 0.000000
0.900117 0.447518 0.000000
0.900384 0.517222 0.000000
0.898755 0.571887 0.000000
0.894318 0.616275 0.000000
0.890140 0.650176 0.000000
0.889033 0.679162 0.000000
0.894612 0.704468 0.000000
0.910050 0.726812 0.000000
0.928268 0.753633 0.000000
0.946644 0.783793 0.000000
0.967660 0.810657 0.000000
1.000000 0.831472 0.000000
0.000000 0.013802 0.000000
0.538770 0.022397 0.000000
0.753784 0.071960 0.000000
0.810282 0.164412 0.000000
0.857382 0.245935 0.000000
0.859756 0.358996 0.000000
0.853359 0.454657 0.000000
0.851895 0.516477 0.000000
0.834927 0.582225 0.000000
0.816782 0.634204 0.000000
0.796055 0.682910 0.000000
0.784528 0.724395 0.000000
0.781690 0.758200 0.000000
0.786771 0.785985 0.000000
0.807761 0.801203 0.000000
0.835608 0.810224 0.000000
0.871309 0.816814 0.000000
0.917513 0.839266 0.000000
1.000000 0.864360 0.000000
0.000000 0.018622 0.000000
0.536241 0.030575 0.000000
0.726685 0.090007 0.000000
0.801321 0.192243 0.000000
0.825851 0.299927 0.000000
0.831111 0.402815 0.000000
0.802843 0.505734 0.000000
0.793874 0.569519 0.000000
0.758590 0.633760 0.000000
0.727271 0.678552 0.000000
0.703825 0.713091 0.000000
0.686123 0.739745 0.000000
0.674545 0.763975 0.000000
0.680825 0.793054 0.000000
0.700016 0.825902 0.000000
0.754269 0.857340 0.000000
0.828513 0.875586 0.000000
0.913896 0.884532 0.000000
1.000000 0.897470 0.000000
0.000000 0.022671 0.000000
0.517756 0.037444 0.000000
0.704379 0.105394 0.000000
0.785953 0.213105 0.000000
0.793081 0.319036 0.000000
0.800560 0.422810 0.000000
0.758671 0.511694 0.000000
0.742494 0.577127 0.000000
0.699067 0.622938 0.000000
0.656980 0.659776 0.000000
0.619795 0.694047 0.000000
0.589622 0.729258 0.000000
0.572060 0.765589 0.000000
0.577190 0.800538 0.000000
0.597220 0.831064 0.000000
0.640898 0.859820 0.000000
0.709567 0.886460 0.000000
0.831233 0.902057 0.000000
1.000000 0.915678 0.000000
0.000000 0.026669 0.000000
0.493172 0.043897 0.000000
0.679031 0.110984 0.000000
0.758229 0.218318 0.000000
0.763956 0.325539 0.000000
0.765645 0.427889 0.000000
0.719705 0.506885 0.000000
0.686541 0.571898 0.000000
0.626800 0.606322 0.000000
0.584663 0.642177 0.000000
0.542501 0.666972 0.000000
0.519256 0.697219 0.000000
0.493053 0.719779 0.000000
0.488258 0.758774 0.000000
0.494281 0.802978 0.000000
0.545457 0.853470 0.000000
0.624727 0.895815 0.000000
0.786225 0.916202 0.000000
1.000000 0.928490 0.000000
0.000000 0.030846 0.000000
0.454788 0.049215 0.000000
0.650060 0.109854 0.000000
0.724460 0.215512 0.000000
0.739687 0.313888 0.000000
0.729264 0.410343 0.000000
0.697179 0.480710 0.000000
0.655479 0.538810 0.000000
0.601624 0.567135 0.000000
0.549361 0.597265 0.000000
0.500717 0.622908 0.000000
0.461210 0.655452 0.000000
0.428142 0.686490 0.000000
0.422858 0.742476 0.000000
0.430443 0.793862 0.000000
0.483679 0.852018 0.000000
0.552321 0.900226 0.000000
0.733979 0.925872 0.000000
1.000000 0.939627 0.000000
0.000000 0.036065 0.000000
0.412065 0.054817 0.000000
0.616189 0.105652 0.000000
0.682938 0.203888 0.000000
0.713070 0.296147 0.000000
0.694035 0.380162 0.000000
0.667030 0.457462 0.000000
0.622960 0.499255 0.000000
0.573485 0.524441 0.000000
0.522968 0.550324 0.000000
0.475550 0.573516 0.000000
0.432808 0.601633 0.000000
0.393624 0.626810 0.000000
0.377103 0.699145 0.000000
0.366131 0.758575 0.000000
0.417807 0.834886 0.000000
0.482327 0.900371 0.000000
0.681611 0.933303 0.000000
1.000000 0.949425 0.000000
0.000000 0.042450 0.000000
0.368984 0.060724 0.000000
0.571934 0.101296 0.000000
0.634278 0.183231 0.000000
0.678573 0.272785 0.000000
0.659769 0.343046 0.000000
0.642176 0.415382 0.000000
0.597205 0.450680 0.000000
0.550291 0.477032 0.000000
0.499980 0.500022 0.000000
0.449644 0.522985 0.000000
0.402748 0.549332 0.000000
0.357853 0.584651 0.000000
0.340260 0.656959 0.000000
0.321404 0.727205 0.000000
0.365699 0.816692 0.000000
0.427813 0.898659 0.000000
0.630687 0.939309 0.000000
1.000000 0.957490 0.000000
0.000000 0.050427 0.000000
0.318486 0.066739 0.000000
0.517476 0.099689 0.000000
0.582282 0.165134 0.000000
0.633748 0.241314 0.000000
0.622948 0.300867 0.000000
0.606376 0.373232 0.000000
0.567186 0.398371 0.000000
0.524403 0.426476 0.000000
0.477050 0.449705 0.000000
0.426504 0.475552 0.000000
0.377064 0.500714 0.000000
0.333007 0.542557 0.000000
0.305958 0.619868 0.000000
0.286922 0.703843 0.000000
0.317139 0.796234 0.000000
0.383769 0.894429 0.000000
0.587656 0.945222 0.000000
1.000000 0.963897 0.000000
0.000000 0.059962 0.000000
0.266093 0.074008 0.000000
0.447709 0.099859 0.000000
0.516483 0.148090 0.000000
0.569524 0.206189 0.000000
0.577068 0.257561 0.000000
0.571850 0.313431 0.000000
0.538832 0.344530 0.000000
0.499283 0.377075 0.000000
0.450651 0.402769 0.000000
0.398380 0.432810 0.000000
0.344521 0.461249 0.000000
0.302787 0.519336 0.000000
0.270754 0.589609 0.000000
0.260278 0.686241 0.000000
0.275615 0.784611 0.000000
0.349770 0.890248 0.000000
0.545314 0.950856 0.000000
1.000000 0.969163 0.000000
0.000000 0.070917 0.000000
0.213808 0.083486 0.000000
0.375034 0.104112 0.000000
0.454648 0.146443 0.000000
0.505745 0.197096 0.000000
0.511733 0.241299 0.000000
0.506836 0.280316 0.000000
0.480682 0.302866 0.000000
0.457482 0.333066 0.000000
0.415319 0.357832 0.000000
0.373238 0.393600 0.000000
0.313481 0.428182 0.000000
0.280254 0.493077 0.000000
0.234424 0.571865 0.000000
0.236075 0.674617 0.000000
0.241730 0.781719 0.000000
0.320784 0.889132 0.000000
0.506894 0.956154 0.000000
1.000000 0.973408 0.000000
0.000000 0.084247 0.000000
0.168609 0.097759 0.000000
0.290526 0.113488 0.000000
0.359270 0.140229 0.000000
0.402787 0.168861 0.000000
0.422764 0.199398 0.000000
0.428022 0.234366 0.000000
0.410409 0.270752 0.000000
0.380189 0.305918 0.000000
0.343002 0.340208 0.000000
0.300928 0.377061 0.000000
0.257546 0.422890 0.000000
0.241260 0.488264 0.000000
0.199422 0.577142 0.000000
0.207046 0.680968 0.000000
0.213970 0.786871 0.000000
0.295498 0.894751 0.000000
0.481854 0.962576 0.000000
1.000000 0.977424 0.000000
0.000000 0.103316 0.000000
0.086099 0.115680 0.000000
0.171401 0.124543 0.000000
0.245765 0.142674 0.000000
0.299973 0.174275 0.000000
0.318998 0.207031 0.000000
0.325403 0.236055 0.000000
0.313746 0.260289 0.000000
0.296152 0.286921 0.000000
0.272807 0.321378 0.000000
0.241446 0.366140 0.000000
0.206177 0.430481 0.000000
0.197055 0.494242 0.000000
0.168916 0.597229 0.000000
0.174294 0.700103 0.000000
0.198687 0.807834 0.000000
0.273321 0.910255 0.000000
0.463408 0.969432 0.000000
1.000000 0.981374 0.000000
0.000000 0.136038 0.000000
0.082686 0.160708 0.000000
0.128832 0.183325 0.000000
0.164332 0.189904 0.000000
0.192231 0.198722 0.000000
0.213115 0.214026 0.000000
0.218292 0.241744 0.000000
0.215381 0.275618 0.000000
0.203844 0.317078 0.000000
0.183387 0.365679 0.000000
0.165129 0.417842 0.000000
0.147996 0.483635 0.000000
0.146450 0.545396 0.000000
0.140223 0.640758 0.000000
0.142660 0.754088 0.000000
0.189899 0.835704 0.000000
0.246365 0.928392 0.000000
0.461298 0.977578 0.000000
1.000000 0.986153 0.000000
0.000000 0.169401 0.000000
0.032320 0.189643 0.000000
0.053332 0.216183 0.000000
0.071608 0.246392 0.000000
0.089811 0.273275 0.000000
0.105257 0.295491 0.000000
0.110893 0.320768 0.000000
0.109774 0.349783 0.000000
0.105650 0.383731 0.000000
0.101370 0.427828 0.000000
0.099621 0.482346 0.000000
0.099742 0.552368 0.000000
0.104092 0.624709 0.000000
0.113422 0.709451 0.000000
0.124564 0.828489 0.000000
0.183284 0.871183 0.000000
0.216173 0.946725 0.000000
0.465040 0.985470 0.000000
1.000000 0.991112 0.000000
0.000000 0.494157 0.000000
0.006787 0.487572 0.000000
0.014559 0.464745 0.000000
0.022409 0.461508 0.000000
0.030577 0.463302 0.000000
0.037434 0.481685 0.000000
0.043870 0.506597 0.000000
0.049153 0.545071 0.000000
0.054792 0.587363 0.000000
0.060674 0.630523 0.000000
0.066632 0.681534 0.000000
0.073965 0.734015 0.000000
0.083444 0.785888 0.000000
0.097794 0.831277 0.000000
0.115711 0.913939 0.000000
0.160682 0.917329 0.000000
0.189605 0.967720 0.000000
0.487703 0.993223 0.000000
1.000000 0.996104 0.000000
0.000000 1.000000 0.000000
0.003877 1.000000 0.000000
0.008888 1.000000 0.000000
0.013834 1.000000 0.000000
0.018615 1.000000 0.000000
0.022517 1.000000 0.000000
0.026513 1.000000 0.000000
0.030692 1.000000 0.000000
0.035940 1.000000 0.000000
0.042327 1.000000 0.000000
0.050388 1.000000 0.000000
0.060088 1.000000 0.000000
0.071097 1.000000 0.000000
0.084212 1.000000 0.000000
0.103056 1.000000 0.000000
0.135989 1.000000 0.000000
0.169157 1.000000 0.000000
0.494165 1.000000 0.000000
1.000000 1.000000 0.000000
0.000000 0.000000 0.055232
0.506280 0.000000 0.055048
0.829830 0.000000 0.054996
0.863604 0.000000 0.055041
0.896735 0.000000 0.054977
[...]
POINT_DATA 2527 
VECTORS pos float 
0.000000 0.000000 0.000000
0.506308 0.000000 0.000000
0.831040 0.000000 0.000000
0.864103 0.000000 0.000000
0.896649 0.000000 0.000000
0.915659 0.000000 0.000000
0.928970 0.000000 0.000000
0.939955 0.000000 0.000000
0.949565 0.000000 0.000000
0.957509 0.000000 0.000000
0.963860 0.000000 0.000000
0.969090 0.000000 0.000000
0.973273 0.000000 0.000000
0.977275 0.000000 0.000000
0.981328 0.000000 0.000000
0.986198 0.000000 0.000000
0.991158 0.000000 0.000000
0.996152 0.000000 0.000000
1.000000 0.000000 0.000000
0.000000 0.003834 0.000000
0.511618 0.006742 0.000000
0.810385 0.032330 0.000000
0.839291 0.082535 0.000000
0.884193 0.086133 0.000000
0.902206 0.168308 0.000000
0.916393 0.214016 0.000000
0.925947 0.266001 0.000000
0.933247 0.318153 0.000000
0.939273 0.368870 0.000000
0.945150 0.412264 0.000000
0.950761 0.455017 0.000000
0.956102 0.493244 0.000000
0.962553 0.517980 0.000000
0.969448 0.536136 0.000000
0.977644 0.538310 0.000000
0.985543 0.534817 0.000000
0.993254 0.511616 0.000000
1.000000 0.505673 0.000000
0.000000 0.008819 0.000000
0.534207 0.014471 0.000000
0.783919 0.053448 0.000000
0.816829 0.128808 0.000000
0.875516 0.171400 0.000000
0.886505 0.290365 0.000000
0.895684 0.375122 0.000000
0.900117 0.447518 0.000000
0.900384 0.517222 0.000000
0.898755 0.571887 0.000000
0.894318 0.616275 0.000000
0.890140 0.650176 0.000000
0.889033 0.679162 0.000000
0.894612 0.704468 0.000000
0.910050 0.726812 0.000000
0.928268 0.753633 0.000000
0.946644 0.783793 0.000000
0.967660 0.810657 0.000000
1.000000 0.831472 0.000000
0.000000 0.013802 0.000000
0.538770 0.022397 0.000000
0.753784 0.071960 0.000000
0.810282 0.164412 0.000000
0.857382 0.245935 0.000000
0.859756 0.358996 0.000000
0.853359 0.454657 0.000000
0.851895 0.516477 0.000000
0.834927 0.582225 0.000000
0.816782 0.634204 0.000000
0.796055 0.682910 0.000000
0.784528 0.724395 0.000000
0.781690 0.758200 0.000000
0.786771 0.785985 0.000000
0.807761 0.801203 0.000000
0.835608 0.810224 0.000000
0.871309 0.816814 0.000000
0.917513 0.839266 0.000000
1.000000 0.864360 0.000000
0.000000 0.018622 0.000000
0.536241 0.030575 0.000000
0.726685 0.090007 0.000000
0.801321 0.192243 0.000000
0.825851 0.299927 0.000000
0.831111 0.402815 0.000000
0.802843 0.505734 0.000000
0.793874 0.569519 0.000000
0.758590 0.633760 0.000000
0.727271 0.678552 0.000000
0.703825 0.713091 0.000000
0.686123 0.739745 0.000000
0.674545 0.763975 0.000000
0.680825 0.793054 0.000000
0.700016 0.825902 0.000000
0.754269 0.857340 0.000000
0.828513 0.875586 0.000000
0.913896 0.884532 0.000000
1.000000 0.897470 0.000000
0.000000 0.022671 0.000000
0.517756 0.037444 0.000000
0.704379 0.105394 0.000000
0.785953 0.213105 0.000000
0.793081 0.319036 0.000000
0.800560 0.422810 0.000000
0.758671 0.511694 0.000000
0.742494 0.577127 0.000000
0.699067 0.622938 0.000000
0.656980 0.659776 0.000000
0.619795 0.694047 0.000000
0.589622 0.729258 0.000000
0.572060 0.765589 0.000000
0.577190 0.800538 0.000000
0.597220 0.831064 0.000000
0.640898 0.859820 0.000000
0.709567 0.886460 0.000000
0.831233 0.902057 0.000000
1.000000 0.915678 0.000000
0.000000 0.026669 0.000000
0.493172 0.043897 0.000000
0.679031 0.110984 0.000000
0.758229 0.218318 0.000000
0.763956 0.325539 0.000000
0.765645 0.427889 0.000000
0.719705 0.506885 0.000000
0.686541 0.571898 0.000000
0.626800 0.606322 0.000000
0.584663 0.642177 0.000000
0.542501 0.666972 0.000000
0.519256 0.697219 0.000000
0.493053 0.719779 0.000000
0.488258 0.758774 0.000000
0.494281 0.802978 0.000000
0.545457 0.853470 0.000000
0.624727 0.895815 0.000000
0.786225 0.916202 0.000000
1.000000 0.928490 0.000000
0.000000 0.030846 0.000000
0.454788 0.049215 0.000000
0.650060 0.109854 0.000000
0.724460 0.215512 0.000000
0.739687 0.313888 0.000000
0.729264 0.410343 0.000000
0.697179 0.480710 0.000000
0.655479 0.538810 0.000000
0.601624 0.567135 0.000000
0.549361 0.597265 0.000000
0.500717 0.622908 0.000000
0.461210 0.655452 0.000000
0.428142 0.686490 0.000000
0.422858 0.742476 0.000000
0.430443 0.793862 0.000000
0.483679 0.852018 0.000000
0.552321 0.900226 0.000000
0.733979 0.925872 0.000000
1.000000 0.939627 0.000000
0.000000 0.036065 0.000000
0.412065 0.054817 0.000000
0.616189 0.105652 0.000000
0.682938 0.203888 0.000000
0.713070 0.296147 0.000000
0.694035 0.380162 0.000000
0.667030 0.457462 0.000000
0.622960 0.499255 0.000000
0.573485 0.524441 0.000000
0.522968 0.550324 0.000000
0.475550 0.573516 0.000000
0.432808 0.601633 0.000000
0.393624 0.626810 0.000000
0.377103 0.699145 0.000000
0.366131 0.758575 0.000000
0.417807 0.834886 0.000000
0.482327 0.900371 0.000000
0.681611 0.933303 0.000000
1.000000 0.949425 0.000000
0.000000 0.042450 0.000000
0.368984 0.060724 0.000000
0.571934 0.101296 0.000000
0.634278 0.183231 0.000000
0.678573 0.272785 0.000000
0.659769 0.343046 0.000000
0.642176 0.415382 0.000000
0.597205 0.450680 0.000000
0.550291 0.477032 0.000000
0.499980 0.500022 0.000000
0.449644 0.522985 0.000000
0.402748 0.549332 0.000000
0.357853 0.584651 0.000000
0.340260 0.656959 0.000000
0.321404 0.727205 0.000000
0.365699 0.816692 0.000000
0.427813 0.898659 0.000000
0.630687 0.939309 0.000000
1.000000 0.957490 0.000000
0.000000 0.050427 0.000000
0.318486 0.066739 0.000000
0.517476 0.099689 0.000000
0.582282 0.165134 0.000000
0.633748 0.241314 0.000000
0.622948 0.300867 0.000000
0.606376 0.373232 0.000000
0.567186 0.398371 0.000000
0.524403 0.426476 0.000000
0.477050 0.449705 0.000000
0.426504 0.475552 0.000000
0.377064 0.500714 0.000000
0.333007 0.542557 0.000000
0.305958 0.619868 0.000000
0.286922 0.703843 0.000000
0.317139 0.796234 0.000000
0.383769 0.894429 0.000000
0.587656 0.945222 0.000000
1.000000 0.963897 0.000000
0.000000 0.059962 0.000000
0.266093 0.074008 0.000000
0.447709 0.099859 0.000000
0.516483 0.148090 0.000000
0.569524 0.206189 0.000000
0.577068 0.257561 0.000000
0.571850 0.313431 0.000000
0.538832 0.344530 0.000000
0.499283 0.377075 0.000000
0.450651 0.402769 0.000000
0.398380 0.432810 0.000000
0.344521 0.461249 0.000000
0.302787 0.519336 0.000000
0.270754 0.589609 0.000000
0.260278 0.686241 0.000000
0.275615 0.784611 0.000000
0.349770 0.890248 0.000000
0.545314 0.950856 0.000000
1.000000 0.969163 0.000000
0.000000 0.070917 0.000000
0.213808 0.083486 0.000000
0.375034 0.104112 0.000000
0.454648 0.146443 0.000000
0.505745 0.197096 0.000000
0.511733 0.241299 0.000000
0.506836 0.280316 0.000000
0.480682 0.302866 0.000000
0.457482 0.333066 0.000000
0.415319 0.357832 0.000000
0.373238 0.393600 0.000000
0.313481 0.428182 0.000000
0.280254 0.493077 0.000000
0.234424 0.571865 0.000000
0.236075 0.674617 0.000000
0.241730 0.781719 0.000000
0.320784 0.889132 0.000000
0.506894 0.956154 0.000000
1.000000 0.973408 0.000000
0.000000 0.084247 0.000000
0.168609 0.097759 0.000000
0.290526 0.113488 0.000000
0.359270 0.140229 0.000000
0.402787 0.168861 0.000000
0.422764 0.199398 0.000000
0.428022 0.234366 0.000000
0.410409 0.270752 0.000000
0.380189 0.305918 0.000000
0.343002 0.340208 0.000000
0.300928 0.377061 0.000000
0.257546 0.422890 0.000000
0.241260 0.488264 0.000000
0.199422 0.577142 0.000000
0.207046 0.680968 0.000000
0.213970 0.786871 0.000000
0.295498 0.894751 0.000000
0.481854 0.962576 0.000000
1.000000 0.977424 0.000000
0.000000 0.103316 0.000000
0.086099 0.115680 0.000000
0.171401 0.124543 0.000000
0.245765 0.142674 0.000000
0.299973 0.174275 0.000000
0.318998 0.207031 0.000000
0.325403 0.236055 0.000000
0.313746 0.260289 0.000000
0.296152 0.286921 0.000000
0.272807 0.321378 0.000000
0.241446 0.366140 0.000000
0.206177 0.430481 0.000000
0.197055 0.494242 0.000000
0.168916 0.597229 0.000000
0.174294 0.700103 0.000000
0.198687 0.807834 0.000000
0.273321 0.910255 0.000000
0.463408 0.969432 0.000000
1.000000 0.981374 0.000000
0.000000 0.136038 0.000000
0.082686 0.160708 0.000000
0.128832 0.183325 0.000000
0.164332 0.189904 0.000000
0.192231 0.198722 0.000000
0.213115 0.214026 0.000000
0.218292 0.241744 0.000000
0.215381 0.275618 0.000000
0.203844 0.317078 0.000000
0.183387 0.365679 0.000000
0.165129 0.417842 0.000000
0.147996 0.483635 0.000000
0.146450 0.545396 0.000000
0.140223 0.640758 0.000000
0.142660 0.754088 0.000000
0.189899 0.835704 0.000000
0.246365 0.928392 0.000000
0.461298 0.977578 0.000000
1.000000 0.986153 0.000000
0.000000 0.169401 0.000000
0.032320 0.189643 0.000000
0.053332 0.216183 0.000000
0.071608 0.246392 0.000000
0.089811 0.273275 0.000000
0.105257 0.295491 0.000000
0.110893 0.320768 0.000000
0.109774 0.349783 0.000000
0.105650 0.383731 0.000000
0.101370 0.427828 0.000000
0.099621 0.482346 0.000000
0.099742 0.552368 0.000000
0.104092 0.624709 0.000000
0.113422 0.709451 0.000000
0.124564 0.828489 0.000000
0.183284 0.871183 0.000000
0.216173 0.946725 0.000000
0.465040 0.985470 0.000000
1.000000 0.991112 0.000000
0.000000 0.494157 0.000000
0.006787 0.487572 0.000000
0.014559 0.464745 0.000000
0.022409 0.461508 0.000000
0.030577 0.463302 0.000000
0.037434 0.481685 0.000000
0.043870 0.506597 0.000000
0.049153 0.545071 0.000000
0.054792 0.587363 0.000000
0.060674 0.630523 0.000000
0.066632 0.681534 0.000000
0.073965 0.734015 0.000000
0.083444 0.785888 0.000000
0.097794 0.831277 0.000000
0.115711 0.913939 0.000000
0.160682 0.917329 0.000000
0.189605 0.967720 0.000000
0.487703 0.993223 0.000000
1.000000 0.996104 0.000000
0.000000 1.000000 0.000000
0.003877 1.000000 0.000000
0.008888 1.000000 0.000000
0.013834 1.000000 0.000000
0.018615 1.000000 0.000000
0.022517 1.000000 0.000000
0.026513 1.000000 0.000000
0.030692 1.000000 0.000000
0.035940 1.000000 0.000000
0.042327 1.000000 0.000000
0.050388 1.000000 0.000000
0.060088 1.000000 0.000000
0.071097 1.000000 0.000000
0.084212 1.000000 0.000000
0.103056 1.000000 0.000000
0.135989 1.000000 0.000000
0.169157 1.000000 0.000000
0.494165 1.000000 0.000000
1.000000 1.000000 0.000000
0.000000 0.000000 0.055232
0.506280 0.000000 0.055048
0.829830 0.000000 0.054996
0.863604 0.000000 0.055041
0.896735 0.000000 0.054977
0.915998 0.000000 0.054733
0.929364 0.000000 0.055117
0.940236 0.000000 0.055088
0.949744 0.000000 0.055120
0.957754 0.000000 0.055181
0.964154 0.000000 0.055060
0.969353 0.000000 0.054930
0.973494 0.000000 0.054895
0.977431 0.000000 0.054853
0.981397 0.000000 0.054959
0.986207 0.000000 0.054899
0.991177 0.000000 0.054968
0.996138 0.000000 0.055040
1.000000 0.000000 0.055084
0.000000 0.003856 0.055198
0.512458 0.006748 0.055092
0.809952 0.032283 0.054999
0.839239 0.082719 0.054945
0.884332 0.086023 0.055108
0.902338 0.168517 0.054823
0.916691 0.213781 0.055079
0.926081 0.266363 0.055109
0.933339 0.318551 0.055016
0.939332 0.369438 0.054982
0.945218 0.412562 0.055015
0.950838 0.454793 0.054960
0.956081 0.493709 0.054954
0.962508 0.518463 0.054993
0.969353 0.536911 0.055004
0.977591 0.538083 0.054992
0.985477 0.534464 0.055069
0.993241 0.512649 0.055096
1.000000 0.506679 0.055074
0.000000 0.008854 0.055040
0.534848 0.014523 0.055070
0.783702 0.053430 0.054986
0.816776 0.128859 0.055024
0.875509 0.171446 0.055002
0.886594 0.290460 0.055039
0.895866 0.375096 0.054951
0.900121 0.447762 0.054957
0.900325 0.517624 0.054952
0.898654 0.571993 0.054958
0.894397 0.616117 0.055000
0.890259 0.650027 0.054980
0.888981 0.679072 0.055038
0.894528 0.704444 0.055015
0.909824 0.726861 0.055056
0.928131 0.753711 0.055063
0.946642 0.783610 0.055051
0.967735 0.809829 0.054962
1.000000 0.829668 0.055022
0.000000 0.013806 0.054921
0.538463 0.022415 0.055001
0.753707 0.071892 0.054980
0.810182 0.164390 0.054953
0.857371 0.245836 0.055027
0.859785 0.359157 0.055040
0.853488 0.454581 0.054972
0.851930 0.516447 0.054996
0.834865 0.582208 0.054995
0.816669 0.634324 0.055040
0.796204 0.682907 0.055006
0.784572 0.724404 0.055007
0.781709 0.758286 0.055009
0.786893 0.786025 0.054959
0.807764 0.801316 0.054963
0.835574 0.810196 0.054920
0.871138 0.816764 0.054937
0.917271 0.839225 0.054934
1.000000 0.863558 0.055036
0.000000 0.018611 0.054925
0.536734 0.030626 0.054970
0.726811 0.090104 0.055024
0.801287 0.192232 0.054971
0.825803 0.300045 0.054965
0.831095 0.402739 0.055026
0.802942 0.505711 0.054982
0.793842 0.569559 0.054995
0.758605 0.633856 0.054999
0.727236 0.678549 0.055027
0.703813 0.713039 0.054985
0.686290 0.739701 0.055013
0.674562 0.763902 0.055009
0.680994 0.792972 0.055024
0.699906 0.825807 0.054977
0.754185 0.857403 0.055034
0.828638 0.875485 0.055032
0.913957 0.884208 0.054929
1.000000 0.896404 0.054892
0.000000 0.022577 0.054856
0.518421 0.037478 0.054946
0.704420 0.105459 0.055043
0.786018 0.213122 0.054966
0.792958 0.319090 0.055014
0.800562 0.422764 0.055017
0.758710 0.511783 0.054957
0.742480 0.577161 0.055011
0.699083 0.622934 0.055014
0.656919 0.659788 0.054973
0.619823 0.694119 0.054997
0.589558 0.729247 0.055011
0.572022 0.765644 0.055006
0.577229 0.800551 0.054985
0.597278 0.831090 0.054995
0.640812 0.859768 0.054968
0.709542 0.886618 0.054998
0.831570 0.902425 0.055044
1.000000 0.916063 0.055475
0.000000 0.026536 0.054868
0.493472 0.043895 0.054919
0.679071 0.111001 0.055052
0.758281 0.218313 0.055020
0.763912 0.325437 0.054987
0.765626 0.427973 0.055002
0.719756 0.506854 0.054993
0.686582 0.571833 0.055000
0.626811 0.606333 0.054993
0.584703 0.642176 0.055005
0.542532 0.666961 0.055009
0.519265 0.697124 0.054983
0.493171 0.719735 0.055023
0.488229 0.758730 0.054965
0.494240 0.802918 0.055005
0.545402 0.853475 0.054996
0.624985 0.895864 0.055000
0.786077 0.916798 0.054974
1.000000 0.929598 0.054847
0.000000 0.030695 0.054920
0.454746 0.049166 0.054954
0.650051 0.109751 0.055023
0.724387 0.215415 0.055018
0.739693 0.313693 0.054988
0.729246 0.410417 0.054998
0.697157 0.480737 0.055004
0.655485 0.538764 0.054992
0.601634 0.567154 0.055000
0.549345 0.597257 0.055007
0.500746 0.622889 0.055010
0.461227 0.655463 0.055009
0.428178 0.686588 0.054991
0.422872 0.742467 0.055000
0.430442 0.793853 0.054981
0.483571 0.851958 0.054955
0.552257 0.900103 0.054985
0.733645 0.926140 0.054972
1.000000 0.940437 0.054868
0.000000 0.035910 0.055001
0.412347 0.054778 0.055014
0.616117 0.105579 0.055025
0.682905 0.203814 0.055016
0.713035 0.296146 0.055042
0.694115 0.380146 0.055033
0.666981 0.457468 0.055011
0.622908 0.499263 0.054981
0.573495 0.524449 0.055000
0.522975 0.550299 0.054997
0.475553 0.573496 0.054995
0.432856 0.601640 0.054997
0.393675 0.626830 0.055010
0.377061 0.699091 0.055017
0.366187 0.758586 0.055024
0.417770 0.834872 0.054984
0.482358 0.900280 0.054986
0.681385 0.933364 0.055015
1.000000 0.949852 0.054922
0.000000 0.042342 0.055081
0.369379 0.060680 0.054989
0.571972 0.101316 0.055024
0.634326 0.183290 0.055005
0.678529 0.272807 0.055017
0.659776 0.343103 0.054991
0.642168 0.415332 0.055024
0.597251 0.450670 0.054998
0.550311 0.477027 0.055010
0.499993 0.500014 0.055022
0.449677 0.522977 0.055007
0.402746 0.549348 0.055006
0.357839 0.584701 0.055000
0.340221 0.656960 0.054984
0.321436 0.727258 0.055019
0.365695 0.816719 0.054991
0.428002 0.898635 0.055050
0.630815 0.939314 0.055022
1.000000 0.957792 0.055040
0.000000 0.050326 0.055035
0.318692 0.066693 0.055011
0.517623 0.099694 0.055028
0.582233 0.165136 0.054982
0.633847 0.241362 0.054998
0.622932 0.300883 0.054955
0.606342 0.373195 0.055008
0.567153 0.398358 0.054992
0.524431 0.426505 0.054983
0.477035 0.449691 0.055013
0.426503 0.475561 0.054991
0.377080 0.500722 0.055003
0.333054 0.542502 0.055001
0.305915 0.619788 0.054990
0.286954 0.703784 0.054988
0.317106 0.796213 0.055000
0.383902 0.894396 0.055018
0.587806 0.945195 0.055002
1.000000 0.964179 0.055005
0.000000 0.059826 0.055015
0.266324 0.073984 0.055091
0.447764 0.099876 0.055040
0.516459 0.148093 0.055014
0.569549 0.206160 0.054981
0.577153 0.257512 0.055003
0.571841 0.313412 0.054998
0.538816 0.344531 0.055006
0.499265 0.377091 0.054986
0.450649 0.402742 0.055000
0.398374 0.432857 0.054983
0.344514 0.461188 0.054990
0.302876 0.519318 0.055018
0.270720 0.589607 0.055001
0.260298 0.686233 0.055000
0.275624 0.784613 0.054985
0.349911 0.890169 0.055023
0.545226 0.950790 0.055004
1.000000 0.969394 0.055048
0.000000 0.070820 0.055051
0.213650 0.083439 0.055092
0.374992 0.104138 0.055050
0.454541 0.146494 0.055009
0.505740 0.197102 0.054998
0.511739 0.241332 0.055012
0.506792 0.280270 0.054976
0.480721 0.302901 0.055028
0.457478 0.333037 0.055009
0.415276 0.357827 0.055011
0.373185 0.393665 0.055009
0.313387 0.428179 0.054967
0.280274 0.493176 0.055049
0.234366 0.571991 0.055004
0.236090 0.674626 0.054999
0.241699 0.781684 0.055005
0.320873 0.888939 0.055011
0.506731 0.956070 0.055029
1.000000 0.973532 0.055023
0.000000 0.084049 0.054940
0.168757 0.097751 0.054901
0.290496 0.113517 0.054916
0.359177 0.140251 0.054943
0.402759 0.168897 0.054971
0.422797 0.199427 0.054974
0.427912 0.234341 0.054976
0.410409 0.270718 0.054990
0.380217 0.305899 0.054988
0.343070 0.340216 0.055006
0.300918 0.377061 0.054964
0.257503 0.422853 0.054987
0.241291 0.488246 0.055035
0.199430 0.577218 0.054956
0.207047 0.680878 0.055027
0.213916 0.786869 0.055001
0.295524 0.894441 0.054979
0.481685 0.962468 0.055030
1.000000 0.977485 0.055041
0.000000 0.103060 0.054953
0.086110 0.115597 0.055055
0.171352 0.124514 0.055038
0.245742 0.142680 0.054982
0.300030 0.174204 0.055014
0.319097 0.207040 0.055029
0.325406 0.236091 0.055012
0.313740 0.260298 0.055009
0.296190 0.286939 0.055020
0.272774 0.321415 0.055048
0.241419 0.366144 0.054988
0.206150 0.430444 0.055005
0.197091 0.494263 0.054988
0.168899 0.597259 0.054995
0.174190 0.699987 0.054975
0.198694 0.807832 0.055023
0.273104 0.909835 0.055034
0.463401 0.969338 0.055040
1.000000 0.981461 0.055020
0.000000 0.136123 0.055105
0.082665 0.160684 0.054916
0.128805 0.183221 0.054951
0.164352 0.189775 0.055020
0.192191 0.198706 0.054978
0.213108 0.213966 0.055007
0.218271 0.241723 0.055006
0.215388 0.275615 0.055012
0.203801 0.317106 0.055013
0.183275 0.365718 0.054994
0.165152 0.417781 0.054988
0.148082 0.483563 0.054994
0.146498 0.545463 0.055043
0.140244 0.640809 0.054898
0.142638 0.754253 0.055007
0.189735 0.835619 0.054996
0.246277 0.928154 0.055098
0.461885 0.977571 0.054991
1.000000 0.986247 0.055044
0.000000 0.169629 0.054972
0.032253 0.189845 0.054981
0.053348 0.216192 0.055085
0.071876 0.246216 0.055078
0.090118 0.273116 0.055080
0.105489 0.295526 0.054990
0.111038 0.320896 0.055053
0.109815 0.349923 0.055012
0.105637 0.383842 0.054998
0.101381 0.427952 0.055036
0.099699 0.482375 0.054986
0.099893 0.552210 0.054993
0.104150 0.624976 0.055053
0.113454 0.709526 0.054854
0.124434 0.828462 0.055067
0.183243 0.871243 0.054919
0.216255 0.946639 0.055091
0.465284 0.985447 0.054993
1.000000 0.991161 0.055098
0.000000 0.493664 0.054980
0.006782 0.487887 0.054970
0.014530 0.465572 0.055020
0.022424 0.461711 0.055023
0.030646 0.463381 0.055034
0.037520 0.481752 0.055035
0.043940 0.506596 0.055024
0.049219 0.545179 0.054973
0.054816 0.587728 0.054980
0.060709 0.630685 0.055081
0.066702 0.681345 0.055031
0.073967 0.733664 0.055045
0.083420 0.786259 0.055087
0.097685 0.831475 0.054870
0.115653 0.913854 0.054992
0.160726 0.917300 0.054953
0.189850 0.967734 0.054940
0.487754 0.993224 0.054987
1.000000 0.996148 0.054962
0.000000 1.000000 0.054863
0.003841 1.000000 0.054925
0.008841 1.000000 0.055064
0.013786 1.000000 0.055111
0.018578 1.000000 0.055120
0.022568 1.000000 0.055059
0.026538 1.000000 0.054927
0.030700 1.000000 0.054981
0.035919 1.000000 0.054999
0.042323 1.000000 0.055015
0.050326 1.000000 0.054895
0.059816 1.000000 0.054862
0.070738 1.000000 0.054858
0.084058 1.000000 0.055229
0.103252 1.000000 0.054905
0.136186 1.000000 0.055183
0.169704 1.000000 0.054943
0.493674 1.000000 0.054980
1.000000 1.000000 0.054896
0.000000 0.000000 0.109966
0.505913 0.000000 0.109992
0.830932 0.000000 0.110150
0.864052 0.000000 0.109489
0.896997 0.000000 0.110113
0.915779 0.000000 0.109677
0.928876 0.000000 0.110140
0.939901 0.000000 0.110181
0.949517 0.000000 0.110053
0.957604 0.000000 0.109976
0.964052 0.000000 0.110110
0.969246 0.000000 0.110020
0.973405 0.000000 0.109978
0.977377 0.000000 0.110040
0.981351 0.000000 0.110039
0.986171 0.000000 0.110066
0.991087 0.000000 0.110092