# vtk DataFile Version 2.0
Mesh for Fierro
ASCII 
DATASET UNSTRUCTURED_GRID

POINTS 2527 float
0.000000 0.000000 0.000000
0.483328 0.000000 0.000000
0.768325 0.000000 0.000000
0.818811 0.000000 0.000000
0.869347 0.000000 0.000000
0.895994 0.000000 0.000000
0.913888 0.000000 0.000000
0.928081 0.000000 0.000000
0.939564 0.000000 0.000000
0.948882 0.000000 0.000000
0.956392 0.000000 0.000000
0.962736 0.000000 0.000000
0.968009 0.000000 0.000000
0.972989 0.000000 0.000000
0.977837 0.000000 0.000000
0.983100 0.000000 0.000000
0.988788 0.000000 0.000000
0.994516 0.000000 0.000000
1.000000 0.000000 0.000000
0.000000 0.005511 0.000000
0.484346 0.007224 0.000000
0.756456 0.029888 0.000000
0.809820 0.058221 0.000000
0.863485 0.074692 0.000000
0.887881 0.139091 0.000000
0.905633 0.183015 0.000000
0.917745 0.228598 0.000000
0.927339 0.274766 0.000000
0.935339 0.320848 0.000000
0.942579 0.360611 0.000000
0.949163 0.400159 0.000000
0.955334 0.435975 0.000000
0.962304 0.460250 0.000000
0.969436 0.478550 0.000000
0.977232 0.486847 0.000000
0.985056 0.488996 0.000000
0.992781 0.484285 0.000000
1.000000 0.482904 0.000000
0.000000 0.011221 0.000000
0.488456 0.014927 0.000000
0.735478 0.052949 0.000000
0.799299 0.104070 0.000000
0.855213 0.150334 0.000000
0.873554 0.244990 0.000000
0.886529 0.322641 0.000000
0.895219 0.390016 0.000000
0.898659 0.456819 0.000000
0.899556 0.512848 0.000000
0.897990 0.560483 0.000000
0.895905 0.599767 0.000000
0.895672 0.633891 0.000000
0.901475 0.662351 0.000000
0.912781 0.686887 0.000000
0.927713 0.712400 0.000000
0.947123 0.735309 0.000000
0.970170 0.756547 0.000000
1.000000 0.768572 0.000000
0.000000 0.016901 0.000000
0.487053 0.022773 0.000000
0.712402 0.072343 0.000000
0.788769 0.139004 0.000000
0.834949 0.213116 0.000000
0.848425 0.310116 0.000000
0.849176 0.402667 0.000000
0.852000 0.465849 0.000000
0.840250 0.535604 0.000000
0.828300 0.590636 0.000000
0.813597 0.642498 0.000000
0.806656 0.686146 0.000000
0.804411 0.724464 0.000000
0.814130 0.754007 0.000000
0.832489 0.775440 0.000000
0.860976 0.788755 0.000000
0.895995 0.799304 0.000000
0.941721 0.809731 0.000000
1.000000 0.818829 0.000000
0.000000 0.022154 0.000000
0.478671 0.030559 0.000000
0.686852 0.087316 0.000000
0.775480 0.167495 0.000000
0.806493 0.261378 0.000000
0.820610 0.357844 0.000000
0.803443 0.457008 0.000000
0.800485 0.523338 0.000000
0.772553 0.591469 0.000000
0.749765 0.640492 0.000000
0.730434 0.681132 0.000000
0.718097 0.715119 0.000000
0.707464 0.745188 0.000000
0.717890 0.775585 0.000000
0.738571 0.806553 0.000000
0.786978 0.834913 0.000000
0.849631 0.855178 0.000000
0.925374 0.863609 0.000000
1.000000 0.869552 0.000000
0.000000 0.027019 0.000000
0.460106 0.037675 0.000000
0.662258 0.098498 0.000000
0.753959 0.185806 0.000000
0.775590 0.282039 0.000000
0.788663 0.379618 0.000000
0.761020 0.469808 0.000000
0.750386 0.537783 0.000000
0.712253 0.591328 0.000000
0.679518 0.635314 0.000000
0.648451 0.675503 0.000000
0.626702 0.714357 0.000000
0.611449 0.752310 0.000000
0.620386 0.788643 0.000000
0.642211 0.820586 0.000000
0.689804 0.848452 0.000000
0.754967 0.873558 0.000000
0.860674 0.887766 0.000000
1.000000 0.895807 0.000000
0.000000 0.032016 0.000000
0.435997 0.044667 0.000000
0.633814 0.104363 0.000000
0.724521 0.195622 0.000000
0.745181 0.292582 0.000000
0.752346 0.388498 0.000000
0.720516 0.472010 0.000000
0.695402 0.539327 0.000000
0.644352 0.583114 0.000000
0.609238 0.624161 0.000000
0.571611 0.656099 0.000000
0.551849 0.691414 0.000000
0.527919 0.720556 0.000000
0.530148 0.761116 0.000000
0.542998 0.803558 0.000000
0.597455 0.849251 0.000000
0.677223 0.886553 0.000000
0.817163 0.905557 0.000000
1.000000 0.913754 0.000000
0.000000 0.037289 0.000000
0.399997 0.050840 0.000000
0.599661 0.104059 0.000000
0.686204 0.193368 0.000000
0.715081 0.281918 0.000000
0.714349 0.373278 0.000000
0.691422 0.448153 0.000000
0.659510 0.510113 0.000000
0.611363 0.547945 0.000000
0.566670 0.586797 0.000000
0.523224 0.620263 0.000000
0.489895 0.659489 0.000000
0.460735 0.695347 0.000000
0.462195 0.750373 0.000000
0.476628 0.800477 0.000000
0.534266 0.852086 0.000000
0.609940 0.895269 0.000000
0.771312 0.917732 0.000000
1.000000 0.927978 0.000000
0.000000 0.043625 0.000000
0.360493 0.057433 0.000000
0.560431 0.101987 0.000000
0.642524 0.186368 0.000000
0.681111 0.269521 0.000000
0.675481 0.351529 0.000000
0.656134 0.428323 0.000000
0.620290 0.476765 0.000000
0.576223 0.510691 0.000000
0.532044 0.545244 0.000000
0.489319 0.576260 0.000000
0.452002 0.611370 0.000000
0.416800 0.644326 0.000000
0.408726 0.712325 0.000000
0.408472 0.772566 0.000000
0.464357 0.840190 0.000000
0.542811 0.898652 0.000000
0.725109 0.927423 0.000000
1.000000 0.939475 0.000000
0.000000 0.051152 0.000000
0.321002 0.064679 0.000000
0.512834 0.100439 0.000000
0.590698 0.171708 0.000000
0.640510 0.250291 0.000000
0.635309 0.320500 0.000000
0.624175 0.390811 0.000000
0.586755 0.433377 0.000000
0.545215 0.467945 0.000000
0.499991 0.500030 0.000000
0.454724 0.532057 0.000000
0.413226 0.566641 0.000000
0.375865 0.609247 0.000000
0.364707 0.679511 0.000000
0.359465 0.749709 0.000000
0.409260 0.828206 0.000000
0.487032 0.899570 0.000000
0.678758 0.935387 0.000000
1.000000 0.948766 0.000000
0.000000 0.060456 0.000000
0.275018 0.072688 0.000000
0.457084 0.101411 0.000000
0.535636 0.159784 0.000000
0.591469 0.227362 0.000000
0.591315 0.287697 0.000000
0.583191 0.355683 0.000000
0.547989 0.388617 0.000000
0.510647 0.423766 0.000000
0.467975 0.454764 0.000000
0.423753 0.489326 0.000000
0.379703 0.523218 0.000000
0.343849 0.571657 0.000000
0.324533 0.648487 0.000000
0.318842 0.730508 0.000000
0.357597 0.813715 0.000000
0.439447 0.898054 0.000000
0.639262 0.942653 0.000000
1.000000 0.956276 0.000000
0.000000 0.071935 0.000000
0.228667 0.082272 0.000000
0.390144 0.104759 0.000000
0.465859 0.148011 0.000000
0.523323 0.199556 0.000000
0.537760 0.249639 0.000000
0.539271 0.304605 0.000000
0.510136 0.340498 0.000000
0.476766 0.379699 0.000000
0.433359 0.413247 0.000000
0.388641 0.452025 0.000000
0.340489 0.489921 0.000000
0.308574 0.551899 0.000000
0.285665 0.626706 0.000000
0.284885 0.718139 0.000000
0.313862 0.806698 0.000000
0.400263 0.896061 0.000000
0.600108 0.949269 0.000000
1.000000 0.962754 0.000000
0.000000 0.086041 0.000000
0.182888 0.094323 0.000000
0.322517 0.113338 0.000000
0.402663 0.150667 0.000000
0.457013 0.196554 0.000000
0.469796 0.238982 0.000000
0.471920 0.279506 0.000000
0.448144 0.308639 0.000000
0.428366 0.343911 0.000000
0.390754 0.375830 0.000000
0.355686 0.416804 0.000000
0.304641 0.460742 0.000000
0.279497 0.528015 0.000000
0.247660 0.611261 0.000000
0.254897 0.707550 0.000000
0.275473 0.804479 0.000000
0.366043 0.895698 0.000000
0.564035 0.955374 0.000000
1.000000 0.968049 0.000000
0.000000 0.103981 0.000000
0.139273 0.112106 0.000000
0.245086 0.126478 0.000000
0.310295 0.151550 0.000000
0.357810 0.179314 0.000000
0.379625 0.211298 0.000000
0.388641 0.247628 0.000000
0.373309 0.285660 0.000000
0.351548 0.324512 0.000000
0.320466 0.364671 0.000000
0.287730 0.408675 0.000000
0.249627 0.462222 0.000000
0.238948 0.530153 0.000000
0.211314 0.620360 0.000000
0.224546 0.717971 0.000000
0.245911 0.814165 0.000000
0.337730 0.901599 0.000000
0.539671 0.962314 0.000000
1.000000 0.973012 0.000000
0.000000 0.130593 0.000000
0.074666 0.136462 0.000000
0.150315 0.144746 0.000000
0.213014 0.165100 0.000000
0.261402 0.193594 0.000000
0.282040 0.224548 0.000000
0.292451 0.254891 0.000000
0.281819 0.284900 0.000000
0.269498 0.318846 0.000000
0.250286 0.359436 0.000000
0.227455 0.408470 0.000000
0.199550 0.476657 0.000000
0.196534 0.543002 0.000000
0.179352 0.642201 0.000000
0.193599 0.738604 0.000000
0.224523 0.832578 0.000000
0.313149 0.912804 0.000000
0.520856 0.969398 0.000000
1.000000 0.977834 0.000000
0.000000 0.181215 0.000000
0.058303 0.190187 0.000000
0.104068 0.200813 0.000000
0.138997 0.211260 0.000000
0.167444 0.224534 0.000000
0.185820 0.245957 0.000000
0.195513 0.275483 0.000000
0.193288 0.313869 0.000000
0.186333 0.357540 0.000000
0.171856 0.409232 0.000000
0.159819 0.464395 0.000000
0.147941 0.534250 0.000000
0.150707 0.597367 0.000000
0.151558 0.689718 0.000000
0.165105 0.786922 0.000000
0.211245 0.861026 0.000000
0.287779 0.927846 0.000000
0.512671 0.977211 0.000000
1.000000 0.983126 0.000000
0.000000 0.232000 0.000000
0.029938 0.243439 0.000000
0.052935 0.264533 0.000000
0.072124 0.287812 0.000000
0.087236 0.313102 0.000000
0.098408 0.337723 0.000000
0.104333 0.366031 0.000000
0.103964 0.400253 0.000000
0.102032 0.439385 0.000000
0.100474 0.487034 0.000000
0.101351 0.542828 0.000000
0.104704 0.609969 0.000000
0.113394 0.677223 0.000000
0.126437 0.754886 0.000000
0.144765 0.849649 0.000000
0.200791 0.895913 0.000000
0.264569 0.947147 0.000000
0.510824 0.985070 0.000000
1.000000 0.988810 0.000000
0.000000 0.516948 0.000000
0.007210 0.515162 0.000000
0.014930 0.510570 0.000000
0.022772 0.512853 0.000000
0.030598 0.520672 0.000000
0.037682 0.539516 0.000000
0.044637 0.563760 0.000000
0.050749 0.599919 0.000000
0.057381 0.638999 0.000000
0.064616 0.678646 0.000000
0.072559 0.725053 0.000000
0.082226 0.771339 0.000000
0.094340 0.816958 0.000000
0.112161 0.860642 0.000000
0.136468 0.925381 0.000000
0.190202 0.941653 0.000000
0.243381 0.970086 0.000000
0.515287 0.992787 0.000000
1.000000 0.994553 0.000000
0.000000 1.000000 0.000000
0.005455 1.000000 0.000000
0.011194 1.000000 0.000000
0.016857 1.000000 0.000000
0.022147 1.000000 0.000000
0.026952 1.000000 0.000000
0.031922 1.000000 0.000000
0.037236 1.000000 0.000000
0.043711 1.000000 0.000000
0.051173 1.000000 0.000000
0.060442 1.000000 0.000000
0.071945 1.000000 0.000000
0.086108 1.000000 0.000000
0.104155 1.000000 0.000000
0.130507 1.000000 0.000000
0.181291 1.000000 0.000000
0.231893 1.000000 0.000000
0.516925 1.000000 0.000000
1.000000 1.000000 0.000000
0.000000 0.000000 0.055233
0.483417 0.000000 0.055060
0.767701 0.000000 0.055053
0.818598 0.000000 0.055001
0.869350 0.000000 0.054991
[...]
POINT_DATA 2527 
VECTORS pos float 
0.000000 0.000000 0.000000
0.483328 0.000000 0.000000
0.768325 0.000000 0.000000
0.818811 0.000000 0.000000
0.869347 0.000000 0.000000
0.895994 0.000000 0.000000
0.913888 0.000000 0.000000
0.928081 0.000000 0.000000
0.939564 0.000000 0.000000
0.948882 0.000000 0.000000
0.956392 0.000000 0.000000
0.962736 0.000000 0.000000
0.968009 0.000000 0.000000
0.972989 0.000000 0.000000
0.977837 0.000000 0.000000
0.983100 0.000000 0.000000
0.988788 0.000000 0.000000
0.994516 0.000000 0.000000
1.000000 0.000000 0.000000
0.000000 0.005511 0.000000
0.484346 0.007224 0.000000
0.756456 0.029888 0.000000
0.809820 0.058221 0.000000
0.863485 0.074692 0.000000
0.887881 0.139091 0.000000
0.905633 0.183015 0.000000
0.917745 0.228598 0.000000
0.927339 0.274766 0.000000
0.935339 0.320848 0.000000
0.942579 0.360611 0.000000
0.949163 0.400159 0.000000
0.955334 0.435975 0.000000
0.962304 0.460250 0.000000
0.969436 0.478550 0.000000
0.977232 0.486847 0.000000
0.985056 0.488996 0.000000
0.992781 0.484285 0.000000
1.000000 0.482904 0.000000
0.000000 0.011221 0.000000
0.488456 0.014927 0.000000
0.735478 0.052949 0.000000
0.799299 0.104070 0.000000
0.855213 0.150334 0.000000
0.873554 0.244990 0.000000
0.886529 0.322641 0.000000
0.895219 0.390016 0.000000
0.898659 0.456819 0.000000
0.899556 0.512848 0.000000
0.897990 0.560483 0.000000
0.895905 0.599767 0.000000
0.895672 0.633891 0.000000
0.901475 0.662351 0.000000
0.912781 0.686887 0.000000
0.927713 0.712400 0.000000
0.947123 0.735309 0.000000
0.970170 0.756547 0.000000
1.000000 0.768572 0.000000
0.000000 0.016901 0.000000
0.487053 0.022773 0.000000
0.712402 0.072343 0.000000
0.788769 0.139004 0.000000
0.834949 0.213116 0.000000
0.848425 0.310116 0.000000
0.849176 0.402667 0.000000
0.852000 0.465849 0.000000
0.840250 0.535604 0.000000
0.828300 0.590636 0.000000
0.813597 0.642498 0.000000
0.806656 0.686146 0.000000
0.804411 0.724464 0.000000
0.814130 0.754007 0.000000
0.832489 0.775440 0.000000
0.860976 0.788755 0.000000
0.895995 0.799304 0.000000
0.941721 0.809731 0.000000
1.000000 0.818829 0.000000
0.000000 0.022154 0.000000
0.478671 0.030559 0.000000
0.686852 0.087316 0.000000
0.775480 0.167495 0.000000
0.806493 0.261378 0.000000
0.820610 0.357844 0.000000
0.803443 0.457008 0.000000
0.800485 0.523338 0.000000
0.772553 0.591469 0.000000
0.749765 0.640492 0.000000
0.730434 0.681132 0.000000
0.718097 0.715119 0.000000
0.707464 0.745188 0.000000
0.717890 0.775585 0.000000
0.738571 0.806553 0.000000
0.786978 0.834913 0.000000
0.849631 0.855178 0.000000
0.925374 0.863609 0.000000
1.000000 0.869552 0.000000
0.000000 0.027019 0.000000
0.460106 0.037675 0.000000
0.662258 0.098498 0.000000
0.753959 0.185806 0.000000
0.775590 0.282039 0.000000
0.788663 0.379618 0.000000
0.761020 0.469808 0.000000
0.750386 0.537783 0.000000
0.712253 0.591328 0.000000
0.679518 0.635314 0.000000
0.648451 0.675503 0.000000
0.626702 0.714357 0.000000
0.611449 0.752310 0.000000
0.620386 0.788643 0.000000
0.642211 0.820586 0.000000
0.689804 0.848452 0.000000
0.754967 0.873558 0.000000
0.860674 0.887766 0.000000
1.000000 0.895807 0.000000
0.000000 0.032016 0.000000
0.435997 0.044667 0.000000
0.633814 0.104363 0.000000
0.724521 0.195622 0.000000
0.745181 0.292582 0.000000
0.752346 0.388498 0.000000
0.720516 0.472010 0.000000
0.695402 0.539327 0.000000
0.644352 0.583114 0.000000
0.609238 0.624161 0.000000
0.571611 0.656099 0.000000
0.551849 0.691414 0.000000
0.527919 0.720556 0.000000
0.530148 0.761116 0.000000
0.542998 0.803558 0.000000
0.597455 0.849251 0.000000
0.677223 0.886553 0.000000
0.817163 0.905557 0.000000
1.000000 0.913754 0.000000
0.000000 0.037289 0.000000
0.399997 0.050840 0.000000
0.599661 0.104059 0.000000
0.686204 0.193368 0.000000
0.715081 0.281918 0.000000
0.714349 0.373278 0.000000
0.691422 0.448153 0.000000
0.659510 0.510113 0.000000
0.611363 0.547945 0.000000
0.566670 0.586797 0.000000
0.523224 0.620263 0.000000
0.489895 0.659489 0.000000
0.460735 0.695347 0.000000
0.462195 0.750373 0.000000
0.476628 0.800477 0.000000
0.534266 0.852086 0.000000
0.609940 0.895269 0.000000
0.771312 0.917732 0.000000
1.000000 0.927978 0.000000
0.000000 0.043625 0.000000
0.360493 0.057433 0.000000
0.560431 0.101987 0.000000
0.642524 0.186368 0.000000
0.681111 0.269521 0.000000
0.675481 0.351529 0.000000
0.656134 0.428323 0.000000
0.620290 0.476765 0.000000
0.576223 0.510691 0.000000
0.532044 0.545244 0.000000
0.489319 0.576260 0.000000
0.452002 0.611370 0.000000
0.416800 0.644326 0.000000
0.408726 0.712325 0.000000
0.408472 0.772566 0.000000
0.464357 0.840190 0.000000
0.542811 0.898652 0.000000
0.725109 0.927423 0.000000
1.000000 0.939475 0.000000
0.000000 0.051152 0.000000
0.321002 0.064679 0.000000
0.512834 0.100439 0.000000
0.590698 0.171708 0.000000
0.640510 0.250291 0.000000
0.635309 0.320500 0.000000
0.624175 0.390811 0.000000
0.586755 0.433377 0.000000
0.545215 0.467945 0.000000
0.499991 0.500030 0.000000
0.454724 0.532057 0.000000
0.413226 0.566641 0.000000
0.375865 0.609247 0.000000
0.364707 0.679511 0.000000
0.359465 0.749709 0.000000
0.409260 0.828206 0.000000
0.487032 0.899570 0.000000
0.678758 0.935387 0.000000
1.000000 0.948766 0.000000
0.000000 0.060456 0.000000
0.275018 0.072688 0.000000
0.457084 0.101411 0.000000
0.535636 0.159784 0.000000
0.591469 0.227362 0.000000
0.591315 0.287697 0.000000
0.583191 0.355683 0.000000
0.547989 0.388617 0.000000
0.510647 0.423766 0.000000
0.467975 0.454764 0.000000
0.423753 0.489326 0.000000
0.379703 0.523218 0.000000
0.343849 0.571657 0.000000
0.324533 0.648487 0.000000
0.318842 0.730508 0.000000
0.357597 0.813715 0.000000
0.439447 0.898054 0.000000
0.639262 0.942653 0.000000
1.000000 0.956276 0.000000
0.000000 0.071935 0.000000
0.228667 0.082272 0.000000
0.390144 0.104759 0.000000
0.465859 0.148011 0.000000
0.523323 0.199556 0.000000
0.537760 0.249639 0.000000
0.539271 0.304605 0.000000
0.510136 0.340498 0.000000
0.476766 0.379699 0.000000
0.433359 0.413247 0.000000
0.388641 0.452025 0.000000
0.340489 0.489921 0.000000
0.308574 0.551899 0.000000
0.285665 0.626706 0.000000
0.284885 0.718139 0.000000
0.313862 0.806698 0.000000
0.400263 0.896061 0.000000
0.600108 0.949269 0.000000
1.000000 0.962754 0.000000
0.000000 0.086041 0.000000
0.182888 0.094323 0.000000
0.322517 0.113338 0.000000
0.402663 0.150667 0.000000
0.457013 0.196554 0.000000
0.469796 0.238982 0.000000
0.471920 0.279506 0.000000
0.448144 0.308639 0.000000
0.428366 0.343911 0.000000
0.390754 0.375830 0.000000
0.355686 0.416804 0.000000
0.304641 0.460742 0.000000
0.279497 0.528015 0.000000
0.247660 0.611261 0.000000
0.254897 0.707550 0.000000
0.275473 0.804479 0.000000
0.366043 0.895698 0.000000
0.564035 0.955374 0.000000
1.000000 0.968049 0.000000
0.000000 0.103981 0.000000
0.139273 0.112106 0.000000
0.245086 0.126478 0.000000
0.310295 0.151550 0.000000
0.357810 0.179314 0.000000
0.379625 0.211298 0.000000
0.388641 0.247628 0.000000
0.373309 0.285660 0.000000
0.351548 0.324512 0.000000
0.320466 0.364671 0.000000
0.287730 0.408675 0.000000
0.249627 0.462222 0.000000
0.238948 0.530153 0.000000
0.211314 0.620360 0.000000
0.224546 0.717971 0.000000
0.245911 0.814165 0.000000
0.337730 0.901599 0.000000
0.539671 0.962314 0.000000
1.000000 0.973012 0.000000
0.000000 0.130593 0.000000
0.074666 0.136462 0.000000
0.150315 0.144746 0.000000
0.213014 0.165100 0.000000
0.261402 0.193594 0.000000
0.282040 0.224548 0.000000
0.292451 0.254891 0.000000
0.281819 0.284900 0.000000
0.269498 0.318846 0.000000
0.250286 0.359436 0.000000
0.227455 0.408470 0.000000
0.199550 0.476657 0.000000
0.196534 0.543002 0.000000
0.179352 0.642201 0.000000
0.193599 0.738604 0.000000
0.224523 0.832578 0.000000
0.313149 0.912804 0.000000
0.520856 0.969398 0.000000
1.000000 0.977834 0.000000
0.000000 0.181215 0.000000
0.058303 0.190187 0.000000
0.104068 0.200813 0.000000
0.138997 0.211260 0.000000
0.167444 0.224534 0.000000
0.185820 0.245957 0.000000
0.195513 0.275483 0.000000
0.193288 0.313869 0.000000
0.186333 0.357540 0.000000
0.171856 0.409232 0.000000
0.159819 0.464395 0.000000
0.147941 0.534250 0.000000
0.150707 0.597367 0.000000
0.151558 0.689718 0.000000
0.165105 0.786922 0.000000
0.211245 0.861026 0.000000
0.287779 0.927846 0.000000
0.512671 0.977211 0.000000
1.000000 0.983126 0.000000
0.000000 0.232000 0.000000
0.029938 0.243439 0.000000
0.052935 0.264533 0.000000
0.072124 0.287812 0.000000
0.087236 0.313102 0.000000
0.098408 0.337723 0.000000
0.104333 0.366031 0.000000
0.103964 0.400253 0.000000
0.102032 0.439385 0.000000
0.100474 0.487034 0.000000
0.101351 0.542828 0.000000
0.104704 0.609969 0.000000
0.113394 0.677223 0.000000
0.126437 0.754886 0.000000
0.144765 0.849649 0.000000
0.200791 0.895913 0.000000
0.264569 0.947147 0.000000
0.510824 0.985070 0.000000
1.000000 0.988810 0.000000
0.000000 0.516948 0.000000
0.007210 0.515162 0.000000
0.014930 0.510570 0.000000
0.022772 0.512853 0.000000
0.030598 0.520672 0.000000
0.037682 0.539516 0.000000
0.044637 0.563760 0.000000
0.050749 0.599919 0.000000
0.057381 0.638999 0.000000
0.064616 0.678646 0.000000
0.072559 0.725053 0.000000
0.082226 0.771339 0.000000
0.094340 0.816958 0.000000
0.112161 0.860642 0.000000
0.136468 0.925381 0.000000
0.190202 0.941653 0.000000
0.243381 0.970086 0.000000
0.515287 0.992787 0.000000
1.000000 0.994553 0.000000
0.000000 1.000000 0.000000
0.005455 1.000000 0.000000
0.011194 1.000000 0.000000
0.016857 1.000000 0.000000
0.022147 1.000000 0.000000
0.026952 1.000000 0.000000
0.031922 1.000000 0.000000
0.037236 1.000000 0.000000
0.043711 1.000000 0.000000
0.051173 1.000000 0.000000
0.060442 1.000000 0.000000
0.071945 1.000000 0.000000
0.086108 1.000000 0.000000
0.104155 1.000000 0.000000
0.130507 1.000000 0.000000
0.181291 1.000000 0.000000
0.231893 1.000000 0.000000
0.516925 1.000000 0.000000
1.000000 1.000000 0.000000
0.000000 0.000000 0.055233
0.483417 0.000000 0.055060
0.767701 0.000000 0.055053
0.818598 0.000000 0.055001
0.869350 0.000000 0.054991
0.895968 0.000000 0.054906
0.914060 0.000000 0.055045
0.928146 0.000000 0.055045
0.939644 0.000000 0.055113
0.948923 0.000000 0.055140
0.956384 0.000000 0.055061
0.962761 0.000000 0.054920
0.968054 0.000000 0.054907
0.973036 0.000000 0.054860
0.977866 0.000000 0.054984
0.983118 0.000000 0.054921
0.988764 0.000000 0.055063
0.994516 0.000000 0.055099
1.000000 0.000000 0.055099
0.000000 0.005466 0.055219
0.484984 0.007224 0.055085
0.756342 0.029964 0.055013
0.809763 0.058225 0.054960
0.863556 0.074712 0.055037
0.887884 0.139150 0.054925
0.905701 0.182820 0.055035
0.917779 0.228896 0.055060
0.927399 0.275086 0.055001
0.935377 0.321338 0.054978
0.942616 0.360871 0.055014
0.949239 0.399931 0.054968
0.955329 0.436438 0.054955
0.962292 0.460685 0.054996
0.969394 0.479405 0.055001
0.977247 0.486781 0.055002
0.985084 0.488851 0.055058
0.992775 0.485163 0.055069
1.000000 0.483650 0.055074
0.000000 0.011231 0.055095
0.489110 0.014919 0.055062
0.735428 0.053122 0.054992
0.799289 0.104023 0.054996
0.855168 0.150380 0.055000
0.873603 0.245052 0.055023
0.886625 0.322601 0.054972
0.895209 0.390187 0.054964
0.898616 0.457210 0.054946
0.899550 0.512903 0.054960
0.898077 0.560386 0.055013
0.896079 0.599547 0.054992
0.895568 0.633880 0.055030
0.901438 0.662245 0.055001
0.912586 0.686896 0.055016
0.927687 0.712318 0.055044
0.946896 0.735378 0.055009
0.970000 0.756280 0.055010
1.000000 0.767702 0.055058
0.000000 0.016878 0.054919
0.487011 0.022760 0.054993
0.712313 0.072325 0.054980
0.788745 0.139008 0.054954
0.834925 0.213085 0.055019
0.848461 0.310253 0.055026
0.849260 0.402596 0.054991
0.852035 0.465832 0.054996
0.840209 0.535619 0.054987
0.828226 0.590739 0.055033
0.813685 0.642465 0.054999
0.806691 0.686116 0.055011
0.804380 0.724588 0.055005
0.814205 0.754070 0.054967
0.832572 0.775490 0.054972
0.860974 0.788763 0.054939
0.895981 0.799293 0.054959
0.941797 0.809783 0.054961
1.000000 0.818619 0.055003
0.000000 0.022133 0.054924
0.479204 0.030591 0.054967
0.686878 0.087371 0.054992
0.775473 0.167444 0.054986
0.806472 0.261469 0.054978
0.820607 0.357743 0.055018
0.803501 0.457014 0.054984
0.800478 0.523365 0.054997
0.772575 0.591543 0.054995
0.749767 0.640499 0.055019
0.730462 0.681106 0.054991
0.718210 0.715081 0.055013
0.707481 0.745087 0.054996
0.718021 0.775477 0.055027
0.738502 0.806466 0.054994
0.786947 0.834955 0.055018
0.849644 0.855167 0.055017
0.925252 0.863523 0.054985
1.000000 0.869294 0.054984
0.000000 0.026944 0.054841
0.460712 0.037716 0.054959
0.662267 0.098568 0.054999
0.754054 0.185796 0.054978
0.775487 0.282043 0.055014
0.788681 0.379619 0.055009
0.761053 0.469864 0.054962
0.750390 0.537825 0.055019
0.712273 0.591330 0.055015
0.679474 0.635326 0.054978
0.648455 0.675533 0.054993
0.626660 0.714345 0.055016
0.611430 0.752372 0.055009
0.620368 0.788679 0.054990
0.642262 0.820621 0.054995
0.689704 0.848441 0.054977
0.754959 0.873608 0.054995
0.860888 0.887932 0.055002
1.000000 0.896027 0.055116
0.000000 0.031920 0.054879
0.436260 0.044666 0.054927
0.633855 0.104379 0.055056
0.724597 0.195643 0.055006
0.745095 0.292508 0.054999
0.752369 0.388585 0.055006
0.720529 0.471948 0.054990
0.695420 0.539257 0.055002
0.644322 0.583144 0.054990
0.609278 0.624174 0.055017
0.571661 0.656098 0.055010
0.551814 0.691342 0.054983
0.528068 0.720497 0.055006
0.530170 0.761049 0.054970
0.542954 0.803498 0.054997
0.597372 0.849267 0.055005
0.677445 0.886609 0.054999
0.817090 0.905784 0.054991
1.000000 0.914205 0.054966
0.000000 0.037230 0.054919
0.399944 0.050777 0.054962
0.599600 0.103938 0.055018
0.686097 0.193292 0.055022
0.715080 0.281770 0.054987
0.714334 0.373325 0.055006
0.691384 0.448179 0.054997
0.659519 0.510080 0.054994
0.611376 0.547963 0.054994
0.566658 0.586783 0.055007
0.523230 0.620246 0.055004
0.489906 0.659499 0.055000
0.460761 0.695427 0.054999
0.462195 0.750381 0.055003
0.476634 0.800472 0.054991
0.534180 0.852051 0.054961
0.609835 0.895211 0.054994
0.771129 0.917805 0.054992
1.000000 0.928229 0.054984
0.000000 0.043596 0.055024
0.360733 0.057375 0.055016
0.560398 0.101909 0.055031
0.642464 0.186334 0.055005
0.681094 0.269492 0.055046
0.675533 0.351522 0.055016
0.656118 0.428337 0.055021
0.620257 0.476780 0.054984
0.576235 0.510676 0.054994
0.532053 0.545235 0.054996
0.489336 0.576234 0.055000
0.452057 0.611390 0.055001
0.416860 0.644336 0.055015
0.408674 0.712278 0.055016
0.408487 0.772574 0.055021
0.464363 0.840202 0.054980
0.542780 0.898581 0.054995
0.724899 0.927386 0.055007
1.000000 0.939632 0.054978
0.000000 0.051073 0.055070
0.321274 0.064625 0.054987
0.512848 0.100412 0.055022
0.590747 0.171755 0.055002
0.640487 0.250282 0.055013
0.635323 0.320552 0.054995
0.624163 0.390749 0.055028
0.586779 0.433353 0.055001
0.545242 0.467950 0.055006
0.499994 0.500012 0.055014
0.454745 0.532055 0.055007
0.413207 0.566660 0.055002
0.375837 0.609269 0.054998
0.364685 0.679516 0.054986
0.359493 0.749760 0.055018
0.409280 0.828261 0.055003
0.487087 0.899521 0.055034
0.678898 0.935355 0.055019
1.000000 0.948985 0.055087
0.000000 0.060362 0.055050
0.275192 0.072613 0.055003
0.457183 0.101401 0.055000
0.535636 0.159782 0.054983
0.591521 0.227396 0.054991
0.591323 0.287700 0.054960
0.583153 0.355688 0.055005
0.547955 0.388612 0.054993
0.510664 0.423772 0.054977
0.467954 0.454759 0.055018
0.423772 0.489336 0.054985
0.379731 0.523212 0.055008
0.343920 0.571624 0.055005
0.324489 0.648425 0.054994
0.318881 0.730437 0.054983
0.357544 0.813699 0.055001
0.439654 0.898067 0.055014
0.639452 0.942614 0.054987
1.000000 0.956523 0.055006
0.000000 0.071883 0.055015
0.228885 0.082245 0.055050
0.390192 0.104799 0.055023
0.465847 0.147996 0.055005
0.523363 0.199523 0.054991
0.537804 0.249616 0.055006
0.539259 0.304558 0.055005
0.510129 0.340491 0.054993
0.476772 0.379743 0.054998
0.433333 0.413206 0.054996
0.388626 0.452057 0.054984
0.340472 0.489878 0.054986
0.308646 0.551869 0.055017
0.285642 0.626709 0.055003
0.284912 0.718157 0.055007
0.313913 0.806720 0.054984
0.400358 0.895989 0.055010
0.600069 0.949194 0.054994
1.000000 0.962839 0.055035
0.000000 0.086014 0.055043
0.182736 0.094326 0.055049
0.322524 0.113379 0.055017
0.402555 0.150734 0.055018
0.457014 0.196507 0.055008
0.469842 0.238971 0.055011
0.471908 0.279509 0.054963
0.448183 0.308664 0.055019
0.428349 0.343915 0.054998
0.390718 0.375833 0.055012
0.355686 0.416862 0.055010
0.304545 0.460748 0.054976
0.279503 0.528085 0.055026
0.247638 0.611398 0.055016
0.254869 0.707502 0.054979
0.275442 0.804375 0.055007
0.366086 0.895562 0.054997
0.563977 0.955304 0.055023
1.000000 0.968111 0.055002
0.000000 0.104036 0.054982
0.139314 0.112153 0.054976
0.245086 0.126479 0.054941
0.310250 0.151571 0.054951
0.357781 0.179388 0.054971
0.379633 0.211315 0.054991
0.388512 0.247624 0.054982
0.373308 0.285636 0.054991
0.351567 0.324463 0.054997
0.320509 0.364676 0.055007
0.287722 0.408677 0.054973
0.249598 0.462206 0.054986
0.238972 0.530149 0.055023
0.211305 0.620377 0.054976
0.224511 0.717959 0.055012
0.245901 0.814190 0.055007
0.337698 0.901389 0.054983
0.539466 0.962246 0.055031
1.000000 0.973089 0.055018
0.000000 0.130563 0.054995
0.074680 0.136422 0.055020
0.150309 0.144838 0.055031
0.213034 0.165116 0.055011
0.261470 0.193523 0.055006
0.282050 0.224495 0.055010
0.292480 0.254879 0.055022
0.281824 0.284917 0.055004
0.269529 0.318878 0.055011
0.250272 0.359463 0.055050
0.227429 0.408453 0.054986
0.199519 0.476625 0.055005
0.196496 0.542994 0.054999
0.179396 0.642243 0.054987
0.193501 0.738535 0.054990
0.224508 0.832572 0.054998
0.313036 0.912565 0.055010
0.520895 0.969365 0.055038
1.000000 0.977922 0.054992
0.000000 0.181218 0.054961
0.058256 0.190211 0.054961
0.104034 0.200696 0.054956
0.138982 0.211224 0.055004
0.167444 0.224519 0.054974
0.185786 0.245949 0.055011
0.195576 0.275462 0.055001
0.193275 0.313895 0.055011
0.186301 0.357529 0.055016
0.171731 0.409299 0.055003
0.159796 0.464375 0.054988
0.147991 0.534171 0.054992
0.150735 0.597431 0.055031
0.151560 0.689729 0.054927
0.165104 0.786959 0.055008
0.211207 0.861022 0.054988
0.287647 0.927695 0.055064
0.513245 0.977204 0.055000
1.000000 0.983160 0.055021
0.000000 0.231972 0.055007
0.029896 0.243536 0.055019
0.052929 0.264610 0.055044
0.072318 0.287595 0.055036
0.087388 0.313056 0.055025
0.098581 0.337697 0.054994
0.104412 0.366123 0.055033
0.104001 0.400372 0.055008
0.101954 0.439622 0.054993
0.100497 0.487043 0.055044
0.101423 0.542804 0.055001
0.104799 0.609774 0.054991
0.113374 0.677451 0.055047
0.126427 0.754951 0.054920
0.144781 0.849597 0.055043
0.200698 0.895987 0.054945
0.264685 0.947051 0.055057
0.511025 0.985041 0.054984
1.000000 0.988802 0.055069
0.000000 0.516686 0.054993
0.007239 0.515388 0.054969
0.014945 0.511228 0.055021
0.022786 0.513159 0.055031
0.030614 0.520972 0.055046
0.037740 0.539484 0.055034
0.044696 0.563853 0.055020
0.050812 0.600016 0.054959
0.057403 0.639361 0.054965
0.064653 0.678803 0.055056
0.072619 0.724865 0.055003
0.082230 0.771130 0.055014
0.094304 0.817229 0.055027
0.112110 0.860777 0.054968
0.136414 0.925315 0.054999
0.190204 0.941708 0.054980
0.243534 0.970098 0.054993
0.515358 0.992763 0.054965
1.000000 0.994528 0.054961
0.000000 1.000000 0.054832
0.005464 1.000000 0.054882
0.011204 1.000000 0.055016
0.016863 1.000000 0.055082
0.022097 1.000000 0.055067
0.026930 1.000000 0.055025
0.031926 1.000000 0.054894
0.037202 1.000000 0.054966
0.043542 1.000000 0.054985
0.051068 1.000000 0.055070
0.060418 1.000000 0.054952
0.071873 1.000000 0.054942
0.085958 1.000000 0.054955
0.104005 1.000000 0.055111
0.130607 1.000000 0.054955
0.181182 1.000000 0.055022
0.231955 1.000000 0.054972
0.516714 1.000000 0.054989
1.000000 1.000000 0.054894
0.000000 0.000000 0.109974
0.483172 0.000000 0.109964
0.768193 0.000000 0.110022
0.818816 0.000000 0.109800
0.869470 0.000000 0.110050
0.895909 0.000000 0.109869
0.913865 0.000000 0.110054
0.928087 0.000000 0.110069
0.939580 0.000000 0.109998
0.948913 0.000000 0.109959
0.956435 0.000000 0.110072
0.962791 0.000000 0.109996
0.968054 0.000000 0.109947
0.973019 0.000000 0.110010
0.977832 0.000000 0.109982
0.983084 0.000000 0.110022
0.988751 0.000000 0.109955