# vtk DataFile Version 2.0
Mesh for Fierro
ASCII 
DATASET UNSTRUCTURED_GRID

POINTS 2527 float
0.000000 0.000000 0.000000
0.358494 0.000000 0.000000
0.598139 0.000000 0.000000
0.706590 0.000000 0.000000
0.782355 0.000000 0.000000
0.825599 0.000000 0.000000
0.856601 0.000000 0.000000
0.880462 0.000000 0.000000
0.899999 0.000000 0.000000
0.915325 0.000000 0.000000
0.927982 0.000000 0.000000
0.939705 0.000000 0.000000
0.949486 0.000000 0.000000
0.958471 0.000000 0.000000
0.966806 0.000000 0.000000
0.975256 0.000000 0.000000
0.983679 0.000000 0.000000
0.991941 0.000000 0.000000
1.000000 0.000000 0.000000
0.000000 0.008030 0.000000
0.357045 0.009151 0.000000
0.593378 0.021019 0.000000
0.701712 0.033686 0.000000
0.777142 0.054213 0.000000
0.821603 0.081884 0.000000
0.853247 0.112947 0.000000
0.876060 0.142138 0.000000
0.894764 0.172952 0.000000
0.910129 0.205582 0.000000
0.922938 0.234018 0.000000
0.934260 0.263628 0.000000
0.944136 0.291335 0.000000
0.953939 0.311816 0.000000
0.963305 0.328596 0.000000
0.972594 0.341759 0.000000
0.981712 0.349600 0.000000
0.990840 0.357081 0.000000
1.000000 0.358394 0.000000
0.000000 0.016389 0.000000
0.349556 0.018282 0.000000
0.582693 0.040589 0.000000
0.694665 0.065954 0.000000
0.766743 0.103798 0.000000
0.809151 0.151494 0.000000
0.836921 0.206137 0.000000
0.858372 0.255426 0.000000
0.873603 0.307042 0.000000
0.884159 0.357061 0.000000
0.892283 0.403592 0.000000
0.898893 0.446348 0.000000
0.905517 0.485291 0.000000
0.915451 0.516750 0.000000
0.927089 0.544527 0.000000
0.942013 0.566608 0.000000
0.959413 0.582615 0.000000
0.978987 0.593368 0.000000
1.000000 0.598197 0.000000
0.000000 0.024829 0.000000
0.341766 0.027398 0.000000
0.566590 0.057983 0.000000
0.679969 0.094364 0.000000
0.747125 0.145995 0.000000
0.785832 0.206196 0.000000
0.807478 0.275116 0.000000
0.824982 0.332933 0.000000
0.830803 0.397581 0.000000
0.834942 0.453879 0.000000
0.836534 0.508360 0.000000
0.841270 0.556135 0.000000
0.847420 0.600214 0.000000
0.862293 0.632810 0.000000
0.880516 0.660987 0.000000
0.905626 0.679978 0.000000
0.934044 0.694666 0.000000
0.966296 0.701711 0.000000
1.000000 0.706589 0.000000
0.000000 0.033221 0.000000
0.328658 0.036688 0.000000
0.544586 0.072966 0.000000
0.660982 0.119484 0.000000
0.723142 0.181742 0.000000
0.758381 0.251194 0.000000
0.772688 0.328931 0.000000
0.785519 0.392694 0.000000
0.780499 0.462786 0.000000
0.778658 0.520128 0.000000
0.775282 0.572326 0.000000
0.777905 0.616025 0.000000
0.779176 0.657784 0.000000
0.795715 0.692309 0.000000
0.818253 0.723136 0.000000
0.854014 0.747125 0.000000
0.896207 0.766737 0.000000
0.945798 0.777151 0.000000
1.000000 0.782352 0.000000
0.000000 0.041570 0.000000
0.311751 0.046061 0.000000
0.516698 0.084564 0.000000
0.632787 0.137702 0.000000
0.692327 0.204274 0.000000
0.723880 0.277735 0.000000
0.732878 0.356107 0.000000
0.740258 0.423210 0.000000
0.726186 0.488960 0.000000
0.718584 0.545643 0.000000
0.707875 0.596894 0.000000
0.706185 0.642507 0.000000
0.703836 0.686109 0.000000
0.722246 0.723880 0.000000
0.748821 0.758367 0.000000
0.793818 0.785830 0.000000
0.848517 0.809128 0.000000
0.918089 0.821583 0.000000
1.000000 0.825610 0.000000
0.000000 0.050559 0.000000
0.291421 0.055857 0.000000
0.485333 0.094535 0.000000
0.600231 0.152572 0.000000
0.657788 0.220847 0.000000
0.686090 0.296114 0.000000
0.691656 0.373991 0.000000
0.690516 0.441716 0.000000
0.668322 0.503003 0.000000
0.655946 0.557700 0.000000
0.637931 0.606349 0.000000
0.633893 0.651011 0.000000
0.626008 0.691650 0.000000
0.643869 0.732892 0.000000
0.671140 0.772729 0.000000
0.724921 0.807507 0.000000
0.793804 0.836963 0.000000
0.886956 0.853235 0.000000
1.000000 0.856488 0.000000
0.000000 0.060339 0.000000
0.263582 0.065749 0.000000
0.446283 0.101114 0.000000
0.556174 0.158724 0.000000
0.615984 0.222095 0.000000
0.642499 0.293828 0.000000
0.650989 0.366102 0.000000
0.645095 0.431332 0.000000
0.621871 0.488124 0.000000
0.602229 0.544302 0.000000
0.580568 0.594644 0.000000
0.568655 0.645074 0.000000
0.558262 0.690483 0.000000
0.576775 0.740267 0.000000
0.607272 0.785486 0.000000
0.667072 0.824973 0.000000
0.744585 0.858399 0.000000
0.857889 0.876046 0.000000
1.000000 0.880390 0.000000
0.000000 0.072056 0.000000
0.233968 0.077093 0.000000
0.403654 0.107765 0.000000
0.508355 0.163474 0.000000
0.572318 0.224693 0.000000
0.596866 0.292119 0.000000
0.606363 0.362015 0.000000
0.594655 0.419442 0.000000
0.573022 0.471927 0.000000
0.550978 0.523982 0.000000
0.528084 0.573042 0.000000
0.511858 0.621860 0.000000
0.496928 0.668321 0.000000
0.511064 0.726186 0.000000
0.537191 0.780549 0.000000
0.602426 0.830792 0.000000
0.692813 0.873667 0.000000
0.826961 0.894755 0.000000
1.000000 0.899623 0.000000
0.000000 0.084752 0.000000
0.205661 0.089884 0.000000
0.356983 0.115793 0.000000
0.453889 0.165050 0.000000
0.520139 0.221360 0.000000
0.545629 0.281403 0.000000
0.557754 0.344103 0.000000
0.544296 0.397804 0.000000
0.523957 0.449020 0.000000
0.500003 0.500024 0.000000
0.476026 0.550996 0.000000
0.455694 0.602222 0.000000
0.442318 0.655915 0.000000
0.454377 0.718618 0.000000
0.479833 0.778648 0.000000
0.546056 0.834910 0.000000
0.642958 0.884168 0.000000
0.794220 0.910042 0.000000
1.000000 0.915149 0.000000
0.000000 0.100004 0.000000
0.173046 0.105277 0.000000
0.307176 0.126405 0.000000
0.397603 0.169152 0.000000
0.462800 0.219474 0.000000
0.488949 0.273824 0.000000
0.503066 0.331684 0.000000
0.488132 0.378119 0.000000
0.471886 0.426963 0.000000
0.449026 0.476036 0.000000
0.426958 0.528092 0.000000
0.405335 0.580586 0.000000
0.393603 0.637966 0.000000
0.403175 0.707877 0.000000
0.427624 0.775310 0.000000
0.491691 0.836538 0.000000
0.596359 0.892279 0.000000
0.765967 0.922984 0.000000
1.000000 0.927795 0.000000
0.000000 0.119526 0.000000
0.142143 0.123933 0.000000
0.255441 0.141603 0.000000
0.332938 0.175057 0.000000
0.392714 0.214483 0.000000
0.423186 0.259726 0.000000
0.441747 0.309480 0.000000
0.431365 0.354893 0.000000
0.419428 0.405359 0.000000
0.397775 0.455699 0.000000
0.378145 0.511872 0.000000
0.354909 0.568668 0.000000
0.349015 0.633911 0.000000
0.357495 0.706163 0.000000
0.383996 0.777924 0.000000
0.443803 0.841277 0.000000
0.553823 0.898967 0.000000
0.736517 0.934266 0.000000
1.000000 0.939247 0.000000
0.000000 0.143422 0.000000
0.112923 0.146737 0.000000
0.206122 0.163046 0.000000
0.275157 0.192461 0.000000
0.328915 0.227328 0.000000
0.356115 0.267156 0.000000
0.373960 0.308415 0.000000
0.366110 0.349044 0.000000
0.362035 0.393624 0.000000
0.344091 0.442286 0.000000
0.331696 0.496949 0.000000
0.309485 0.558258 0.000000
0.308404 0.626027 0.000000
0.313868 0.703832 0.000000
0.342262 0.779135 0.000000
0.399758 0.847469 0.000000
0.514815 0.905515 0.000000
0.708673 0.944114 0.000000
1.000000 0.949175 0.000000
0.000000 0.174393 0.000000
0.081939 0.178393 0.000000
0.151450 0.190867 0.000000
0.206214 0.214137 0.000000
0.251161 0.241589 0.000000
0.277729 0.276073 0.000000
0.296157 0.313858 0.000000
0.293835 0.357508 0.000000
0.292119 0.403164 0.000000
0.281379 0.454388 0.000000
0.273805 0.511036 0.000000
0.259726 0.576786 0.000000
0.267158 0.643879 0.000000
0.276085 0.722266 0.000000
0.307758 0.795704 0.000000
0.367155 0.862340 0.000000
0.483397 0.915422 0.000000
0.688149 0.953967 0.000000
1.000000 0.958273 0.000000
0.000000 0.217590 0.000000
0.054213 0.222804 0.000000
0.103791 0.233272 0.000000
0.146025 0.252885 0.000000
0.181764 0.276947 0.000000
0.204318 0.307760 0.000000
0.220855 0.342264 0.000000
0.222055 0.384012 0.000000
0.224696 0.427607 0.000000
0.221356 0.479847 0.000000
0.219462 0.537172 0.000000
0.214507 0.607293 0.000000
0.227316 0.671079 0.000000
0.241600 0.748834 0.000000
0.276938 0.818224 0.000000
0.338894 0.880534 0.000000
0.455699 0.927039 0.000000
0.671186 0.963389 0.000000
1.000000 0.966668 0.000000
0.000000 0.293376 0.000000
0.033692 0.298297 0.000000
0.065916 0.305347 0.000000
0.094326 0.319993 0.000000
0.119456 0.338910 0.000000
0.137666 0.367145 0.000000
0.152502 0.399791 0.000000
0.158724 0.443817 0.000000
0.163460 0.491692 0.000000
0.165113 0.546010 0.000000
0.169214 0.602428 0.000000
0.175042 0.667065 0.000000
0.192500 0.724872 0.000000
0.214146 0.793804 0.000000
0.252888 0.853979 0.000000
0.319989 0.905670 0.000000
0.433408 0.941920 0.000000
0.657778 0.972681 0.000000
1.000000 0.975163 0.000000
0.000000 0.401906 0.000000
0.021041 0.406589 0.000000
0.040649 0.417386 0.000000
0.058098 0.433407 0.000000
0.072993 0.455667 0.000000
0.084597 0.483407 0.000000
0.094499 0.514823 0.000000
0.101058 0.553815 0.000000
0.107757 0.596320 0.000000
0.115857 0.642950 0.000000
0.126331 0.692817 0.000000
0.141615 0.744602 0.000000
0.163026 0.793772 0.000000
0.190873 0.848541 0.000000
0.233263 0.896208 0.000000
0.305356 0.934080 0.000000
0.417352 0.959369 0.000000
0.649800 0.981746 0.000000
1.000000 0.983443 0.000000
0.000000 0.641407 0.000000
0.009174 0.642577 0.000000
0.018260 0.649774 0.000000
0.027309 0.657739 0.000000
0.036598 0.671085 0.000000
0.046040 0.688032 0.000000
0.055896 0.708443 0.000000
0.065729 0.736410 0.000000
0.077030 0.765841 0.000000
0.089965 0.794238 0.000000
0.105251 0.826898 0.000000
0.123949 0.857879 0.000000
0.146760 0.886934 0.000000
0.178401 0.918061 0.000000
0.222822 0.945788 0.000000
0.298282 0.966292 0.000000
0.406562 0.978988 0.000000
0.642667 0.990827 0.000000
1.000000 0.991779 0.000000
0.000000 1.000000 0.000000
0.008243 1.000000 0.000000
0.016628 1.000000 0.000000
0.024874 1.000000 0.000000
0.033364 1.000000 0.000000
0.041777 1.000000 0.000000
0.050851 1.000000 0.000000
0.060748 1.000000 0.000000
0.072297 1.000000 0.000000
0.084886 1.000000 0.000000
0.100422 1.000000 0.000000
0.119647 1.000000 0.000000
0.143540 1.000000 0.000000
0.174396 1.000000 0.000000
0.217636 1.000000 0.000000
0.293341 1.000000 0.000000
0.401878 1.000000 0.000000
0.641464 1.000000 0.000000
1.000000 1.000000 0.000000
0.000000 0.000000 0.055166
0.358669 0.000000 0.055032
0.597952 0.000000 0.055003
0.706590 0.000000 0.055014
0.782361 0.000000 0.054981
[...]
POINT_DATA 2527 
VECTORS pos float 
0.000000 0.000000 0.000000
0.358494 0.000000 0.000000
0.598139 0.000000 0.000000
0.706590 0.000000 0.000000
0.782355 0.000000 0.000000
0.825599 0.000000 0.000000
0.856601 0.000000 0.000000
0.880462 0.000000 0.000000
0.899999 0.000000 0.000000
0.915325 0.000000 0.000000
0.927982 0.000000 0.000000
0.939705 0.000000 0.000000
0.949486 0.000000 0.000000
0.958471 0.000000 0.000000
0.966806 0.000000 0.000000
0.975256 0.000000 0.000000
0.983679 0.000000 0.000000
0.991941 0.000000 0.000000
1.000000 0.000000 0.000000
0.000000 0.008030 0.000000
0.357045 0.009151 0.000000
0.593378 0.021019 0.000000
0.701712 0.033686 0.000000
0.777142 0.054213 0.000000
0.821603 0.081884 0.000000
0.853247 0.112947 0.000000
0.876060 0.142138 0.000000
0.894764 0.172952 0.000000
0.910129 0.205582 0.000000
0.922938 0.234018 0.000000
0.934260 0.263628 0.000000
0.944136 0.291335 0.000000
0.953939 0.311816 0.000000
0.963305 0.328596 0.000000
0.972594 0.341759 0.000000
0.981712 0.349600 0.000000
0.990840 0.357081 0.000000
1.000000 0.358394 0.000000
0.000000 0.016389 0.000000
0.349556 0.018282 0.000000
0.582693 0.040589 0.000000
0.694665 0.065954 0.000000
0.766743 0.103798 0.000000
0.809151 0.151494 0.000000
0.836921 0.206137 0.000000
0.858372 0.255426 0.000000
0.873603 0.307042 0.000000
0.884159 0.357061 0.000000
0.892283 0.403592 0.000000
0.898893 0.446348 0.000000
0.905517 0.485291 0.000000
0.915451 0.516750 0.000000
0.927089 0.544527 0.000000
0.942013 0.566608 0.000000
0.959413 0.582615 0.000000
0.978987 0.593368 0.000000
1.000000 0.598197 0.000000
0.000000 0.024829 0.000000
0.341766 0.027398 0.000000
0.566590 0.057983 0.000000
0.679969 0.094364 0.000000
0.747125 0.145995 0.000000
0.785832 0.206196 0.000000
0.807478 0.275116 0.000000
0.824982 0.332933 0.000000
0.830803 0.397581 0.000000
0.834942 0.453879 0.000000
0.836534 0.508360 0.000000
0.841270 0.556135 0.000000
0.847420 0.600214 0.000000
0.862293 0.632810 0.000000
0.880516 0.660987 0.000000
0.905626 0.679978 0.000000
0.934044 0.694666 0.000000
0.966296 0.701711 0.000000
1.000000 0.706589 0.000000
0.000000 0.033221 0.000000
0.328658 0.036688 0.000000
0.544586 0.072966 0.000000
0.660982 0.119484 0.000000
0.723142 0.181742 0.000000
0.758381 0.251194 0.000000
0.772688 0.328931 0.000000
0.785519 0.392694 0.000000
0.780499 0.462786 0.000000
0.778658 0.520128 0.000000
0.775282 0.572326 0.000000
0.777905 0.616025 0.000000
0.779176 0.657784 0.000000
0.795715 0.692309 0.000000
0.818253 0.723136 0.000000
0.854014 0.747125 0.000000
0.896207 0.766737 0.000000
0.945798 0.777151 0.000000
1.000000 0.782352 0.000000
0.000000 0.041570 0.000000
0.311751 0.046061 0.000000
0.516698 0.084564 0.000000
0.632787 0.137702 0.000000
0.692327 0.204274 0.000000
0.723880 0.277735 0.000000
0.732878 0.356107 0.000000
0.740258 0.423210 0.000000
0.726186 0.488960 0.000000
0.718584 0.545643 0.000000
0.707875 0.596894 0.000000
0.706185 0.642507 0.000000
0.703836 0.686109 0.000000
0.722246 0.723880 0.000000
0.748821 0.758367 0.000000
0.793818 0.785830 0.000000
0.848517 0.809128 0.000000
0.918089 0.821583 0.000000
1.000000 0.825610 0.000000
0.000000 0.050559 0.000000
0.291421 0.055857 0.000000
0.485333 0.094535 0.000000
0.600231 0.152572 0.000000
0.657788 0.220847 0.000000
0.686090 0.296114 0.000000
0.691656 0.373991 0.000000
0.690516 0.441716 0.000000
0.668322 0.503003 0.000000
0.655946 0.557700 0.000000
0.637931 0.606349 0.000000
0.633893 0.651011 0.000000
0.626008 0.691650 0.000000
0.643869 0.732892 0.000000
0.671140 0.772729 0.000000
0.724921 0.807507 0.000000
0.793804 0.836963 0.000000
0.886956 0.853235 0.000000
1.000000 0.856488 0.000000
0.000000 0.060339 0.000000
0.263582 0.065749 0.000000
0.446283 0.101114 0.000000
0.556174 0.158724 0.000000
0.615984 0.222095 0.000000
0.642499 0.293828 0.000000
0.650989 0.366102 0.000000
0.645095 0.431332 0.000000
0.621871 0.488124 0.000000
0.602229 0.544302 0.000000
0.580568 0.594644 0.000000
0.568655 0.645074 0.000000
0.558262 0.690483 0.000000
0.576775 0.740267 0.000000
0.607272 0.785486 0.000000
0.667072 0.824973 0.000000
0.744585 0.858399 0.000000
0.857889 0.876046 0.000000
1.000000 0.880390 0.000000
0.000000 0.072056 0.000000
0.233968 0.077093 0.000000
0.403654 0.107765 0.000000
0.508355 0.163474 0.000000
0.572318 0.224693 0.000000
0.596866 0.292119 0.000000
0.606363 0.362015 0.000000
0.594655 0.419442 0.000000
0.573022 0.471927 0.000000
0.550978 0.523982 0.000000
0.528084 0.573042 0.000000
0.511858 0.621860 0.000000
0.496928 0.668321 0.000000
0.511064 0.726186 0.000000
0.537191 0.780549 0.000000
0.602426 0.830792 0.000000
0.692813 0.873667 0.000000
0.826961 0.894755 0.000000
1.000000 0.899623 0.000000
0.000000 0.084752 0.000000
0.205661 0.089884 0.000000
0.356983 0.115793 0.000000
0.453889 0.165050 0.000000
0.520139 0.221360 0.000000
0.545629 0.281403 0.000000
0.557754 0.344103 0.000000
0.544296 0.397804 0.000000
0.523957 0.449020 0.000000
0.500003 0.500024 0.000000
0.476026 0.550996 0.000000
0.455694 0.602222 0.000000
0.442318 0.655915 0.000000
0.454377 0.718618 0.000000
0.479833 0.778648 0.000000
0.546056 0.834910 0.000000
0.642958 0.884168 0.000000
0.794220 0.910042 0.000000
1.000000 0.915149 0.000000
0.000000 0.100004 0.000000
0.173046 0.105277 0.000000
0.307176 0.126405 0.000000
0.397603 0.169152 0.000000
0.462800 0.219474 0.000000
0.488949 0.273824 0.000000
0.503066 0.331684 0.000000
0.488132 0.378119 0.000000
0.471886 0.426963 0.000000
0.449026 0.476036 0.000000
0.426958 0.528092 0.000000
0.405335 0.580586 0.000000
0.393603 0.637966 0.000000
0.403175 0.707877 0.000000
0.427624 0.775310 0.000000
0.491691 0.836538 0.000000
0.596359 0.892279 0.000000
0.765967 0.922984 0.000000
1.000000 0.927795 0.000000
0.000000 0.119526 0.000000
0.142143 0.123933 0.000000
0.255441 0.141603 0.000000
0.332938 0.175057 0.000000
0.392714 0.214483 0.000000
0.423186 0.259726 0.000000
0.441747 0.309480 0.000000
0.431365 0.354893 0.000000
0.419428 0.405359 0.000000
0.397775 0.455699 0.000000
0.378145 0.511872 0.000000
0.354909 0.568668 0.000000
0.349015 0.633911 0.000000
0.357495 0.706163 0.000000
0.383996 0.777924 0.000000
0.443803 0.841277 0.000000
0.553823 0.898967 0.000000
0.736517 0.934266 0.000000
1.000000 0.939247 0.000000
0.000000 0.143422 0.000000
0.112923 0.146737 0.000000
0.206122 0.163046 0.000000
0.275157 0.192461 0.000000
0.328915 0.227328 0.000000
0.356115 0.267156 0.000000
0.373960 0.308415 0.000000
0.366110 0.349044 0.000000
0.362035 0.393624 0.000000
0.344091 0.442286 0.000000
0.331696 0.496949 0.000000
0.309485 0.558258 0.000000
0.308404 0.626027 0.000000
0.313868 0.703832 0.000000
0.342262 0.779135 0.000000
0.399758 0.847469 0.000000
0.514815 0.905515 0.000000
0.708673 0.944114 0.000000
1.000000 0.949175 0.000000
0.000000 0.174393 0.000000
0.081939 0.178393 0.000000
0.151450 0.190867 0.000000
0.206214 0.214137 0.000000
0.251161 0.241589 0.000000
0.277729 0.276073 0.000000
0.296157 0.313858 0.000000
0.293835 0.357508 0.000000
0.292119 0.403164 0.000000
0.281379 0.454388 0.000000
0.273805 0.511036 0.000000
0.259726 0.576786 0.000000
0.267158 0.643879 0.000000
0.276085 0.722266 0.000000
0.307758 0.795704 0.000000
0.367155 0.862340 0.000000
0.483397 0.915422 0.000000
0.688149 0.953967 0.000000
1.000000 0.958273 0.000000
0.000000 0.217590 0.000000
0.054213 0.222804 0.000000
0.103791 0.233272 0.000000
0.146025 0.252885 0.000000
0.181764 0.276947 0.000000
0.204318 0.307760 0.000000
0.220855 0.342264 0.000000
0.222055 0.384012 0.000000
0.224696 0.427607 0.000000
0.221356 0.479847 0.000000
0.219462 0.537172 0.000000
0.214507 0.607293 0.000000
0.227316 0.671079 0.000000
0.241600 0.748834 0.000000
0.276938 0.818224 0.000000
0.338894 0.880534 0.000000
0.455699 0.927039 0.000000
0.671186 0.963389 0.000000
1.000000 0.966668 0.000000
0.000000 0.293376 0.000000
0.033692 0.298297 0.000000
0.065916 0.305347 0.000000
0.094326 0.319993 0.000000
0.119456 0.338910 0.000000
0.137666 0.367145 0.000000
0.152502 0.399791 0.000000
0.158724 0.443817 0.000000
0.163460 0.491692 0.000000
0.165113 0.546010 0.000000
0.169214 0.602428 0.000000
0.175042 0.667065 0.000000
0.192500 0.724872 0.000000
0.214146 0.793804 0.000000
0.252888 0.853979 0.000000
0.319989 0.905670 0.000000
0.433408 0.941920 0.000000
0.657778 0.972681 0.000000
1.000000 0.975163 0.000000
0.000000 0.401906 0.000000
0.021041 0.406589 0.000000
0.040649 0.417386 0.000000
0.058098 0.433407 0.000000
0.072993 0.455667 0.000000
0.084597 0.483407 0.000000
0.094499 0.514823 0.000000
0.101058 0.553815 0.000000
0.107757 0.596320 0.000000
0.115857 0.642950 0.000000
0.126331 0.692817 0.000000
0.141615 0.744602 0.000000
0.163026 0.793772 0.000000
0.190873 0.848541 0.000000
0.233263 0.896208 0.000000
0.305356 0.934080 0.000000
0.417352 0.959369 0.000000
0.649800 0.981746 0.000000
1.000000 0.983443 0.000000
0.000000 0.641407 0.000000
0.009174 0.642577 0.000000
0.018260 0.649774 0.000000
0.027309 0.657739 0.000000
0.036598 0.671085 0.000000
0.046040 0.688032 0.000000
0.055896 0.708443 0.000000
0.065729 0.736410 0.000000
0.077030 0.765841 0.000000
0.089965 0.794238 0.000000
0.105251 0.826898 0.000000
0.123949 0.857879 0.000000
0.146760 0.886934 0.000000
0.178401 0.918061 0.000000
0.222822 0.945788 0.000000
0.298282 0.966292 0.000000
0.406562 0.978988 0.000000
0.642667 0.990827 0.000000
1.000000 0.991779 0.000000
0.000000 1.000000 0.000000
0.008243 1.000000 0.000000
0.016628 1.000000 0.000000
0.024874 1.000000 0.000000
0.033364 1.000000 0.000000
0.041777 1.000000 0.000000
0.050851 1.000000 0.000000
0.060748 1.000000 0.000000
0.072297 1.000000 0.000000
0.084886 1.000000 0.000000
0.100422 1.000000 0.000000
0.119647 1.000000 0.000000
0.143540 1.000000 0.000000
0.174396 1.000000 0.000000
0.217636 1.000000 0.000000
0.293341 1.000000 0.000000
0.401878 1.000000 0.000000
0.641464 1.000000 0.000000
1.000000 1.000000 0.000000
0.000000 0.000000 0.055166
0.358669 0.000000 0.055032
0.597952 0.000000 0.055003
0.706590 0.000000 0.055014
0.782361 0.000000 0.054981
0.825633 0.000000 0.055004
0.856586 0.000000 0.055011
0.880425 0.000000 0.054947
0.899754 0.000000 0.055046
0.915174 0.000000 0.055035
0.927812 0.000000 0.055078
0.939340 0.000000 0.054904
0.949308 0.000000 0.054944
0.958349 0.000000 0.054941
0.966713 0.000000 0.055060
0.975152 0.000000 0.054993
0.983471 0.000000 0.055077
0.991897 0.000000 0.055126
1.000000 0.000000 0.055098
0.000000 0.008138 0.055183
0.357397 0.009141 0.055044
0.593356 0.021052 0.055003
0.701697 0.033668 0.054991
0.777166 0.054243 0.055002
0.821619 0.081887 0.054986
0.853252 0.112939 0.054990
0.876064 0.142183 0.054990
0.894742 0.173069 0.054989
0.910104 0.205827 0.054977
0.922967 0.234107 0.055016
0.934313 0.263426 0.054976
0.944101 0.291609 0.054957
0.953926 0.312104 0.055019
0.963361 0.329048 0.054998
0.972653 0.342157 0.055016
0.981723 0.350063 0.055046
0.990867 0.357437 0.055022
1.000000 0.358800 0.055036
0.000000 0.016539 0.055071
0.350013 0.018283 0.055050
0.582682 0.040638 0.054993
0.694652 0.065921 0.055000
0.766747 0.103824 0.054976
0.809157 0.151479 0.055008
0.836983 0.206123 0.054983
0.858410 0.255458 0.055008
0.873679 0.307199 0.054973
0.884195 0.357030 0.054993
0.892296 0.403555 0.054999
0.898962 0.446040 0.055003
0.905379 0.485367 0.055006
0.915360 0.516620 0.054996
0.926998 0.544385 0.055010
0.941954 0.566580 0.054999
0.959361 0.582646 0.055000
0.978940 0.593364 0.055005
1.000000 0.597953 0.055006
0.000000 0.024816 0.054969
0.342138 0.027353 0.054991
0.566582 0.058034 0.054998
0.679935 0.094331 0.054983
0.747161 0.146013 0.055011
0.785837 0.206208 0.054998
0.807549 0.275088 0.055016
0.824959 0.332961 0.054990
0.830816 0.397561 0.054999
0.834933 0.453949 0.055021
0.836538 0.508313 0.054999
0.841276 0.556127 0.055000
0.847404 0.600304 0.055005
0.862342 0.632852 0.054979
0.880567 0.661042 0.054996
0.905692 0.679936 0.054985
0.934087 0.694656 0.054990
0.966332 0.701695 0.054993
1.000000 0.706588 0.055003
0.000000 0.033251 0.054994
0.329021 0.036645 0.054972
0.544379 0.072973 0.054987
0.661027 0.119446 0.055004
0.723085 0.181751 0.054993
0.758381 0.251162 0.054999
0.772709 0.328875 0.054994
0.785502 0.392712 0.055005
0.780537 0.462845 0.054997
0.778674 0.520129 0.055000
0.775305 0.572341 0.054994
0.777940 0.615984 0.055007
0.779158 0.657738 0.055007
0.795718 0.692247 0.055014
0.818249 0.723069 0.054999
0.853981 0.747150 0.055017
0.896162 0.766755 0.054999
0.945764 0.777165 0.054995
1.000000 0.782358 0.054975
0.000000 0.041629 0.054940
0.312170 0.046083 0.054985
0.516647 0.084627 0.054996
0.632851 0.137671 0.054995
0.692244 0.204284 0.055012
0.723929 0.277749 0.054986
0.732825 0.356166 0.055007
0.740288 0.423227 0.055007
0.726171 0.488994 0.055011
0.718618 0.545627 0.054993
0.707896 0.596861 0.054996
0.706132 0.642504 0.055015
0.703912 0.686112 0.054996
0.722259 0.723928 0.054987
0.748843 0.758395 0.054997
0.793779 0.785845 0.054984
0.848536 0.809141 0.055001
0.918119 0.821607 0.054992
1.000000 0.825643 0.055013
0.000000 0.050674 0.054954
0.291551 0.055903 0.054945
0.485352 0.094594 0.055032
0.600309 0.152603 0.054998
0.657740 0.220853 0.055006
0.686129 0.296121 0.055001
0.691596 0.373900 0.055005
0.690524 0.441733 0.054999
0.668290 0.503048 0.054996
0.655938 0.557725 0.054999
0.637961 0.606369 0.055007
0.633833 0.650966 0.054998
0.626103 0.691590 0.055014
0.643856 0.732803 0.054995
0.671099 0.772708 0.055003
0.724870 0.807553 0.055000
0.793872 0.836977 0.055005
0.887040 0.853268 0.055013
1.000000 0.856618 0.054998
0.000000 0.060611 0.054918
0.263474 0.065694 0.054982
0.446080 0.101044 0.054999
0.556106 0.158702 0.055010
0.615979 0.222057 0.054988
0.642496 0.293848 0.055009
0.650984 0.366135 0.054993
0.645096 0.431330 0.055002
0.621871 0.488108 0.054996
0.602228 0.544309 0.054997
0.580572 0.594622 0.055004
0.568646 0.645098 0.054996
0.558270 0.690524 0.054986
0.576790 0.740290 0.055004
0.607274 0.785499 0.055000
0.667050 0.824965 0.054998
0.744553 0.858407 0.054993
0.857792 0.876061 0.055016
1.000000 0.880520 0.055033
0.000000 0.072162 0.055028
0.234013 0.077022 0.055024
0.403581 0.107700 0.055024
0.508317 0.163475 0.055000
0.572324 0.224650 0.055020
0.596850 0.292100 0.055012
0.606372 0.362035 0.055009
0.594638 0.419446 0.054988
0.573018 0.471920 0.054995
0.551000 0.523961 0.055008
0.528092 0.573022 0.055005
0.511913 0.621870 0.055007
0.496964 0.668307 0.055005
0.511012 0.726168 0.055022
0.537174 0.780528 0.055011
0.602421 0.830828 0.054978
0.692783 0.873648 0.055000
0.826888 0.894766 0.055005
1.000000 0.899834 0.054978
0.000000 0.084808 0.055006
0.205778 0.089888 0.054988
0.356993 0.115780 0.055017
0.453944 0.165079 0.054988
0.520160 0.221356 0.055011
0.545642 0.281407 0.054998
0.557724 0.344085 0.055004
0.544313 0.397768 0.055003
0.523973 0.449000 0.055007
0.500009 0.500009 0.055001
0.476020 0.551015 0.055011
0.455693 0.602247 0.055002
0.442265 0.655932 0.054995
0.454397 0.718633 0.054989
0.479863 0.778681 0.055004
0.546053 0.834922 0.055014
0.642992 0.884231 0.054991
0.794240 0.910099 0.055003
1.000000 0.915264 0.055089
0.000000 0.100218 0.055059
0.173100 0.105274 0.054990
0.307199 0.126327 0.055001
0.397566 0.169172 0.054998
0.462824 0.219455 0.055003
0.488980 0.273816 0.054988
0.503057 0.331705 0.054998
0.488098 0.378130 0.054998
0.471921 0.426986 0.054988
0.448994 0.476022 0.055016
0.426981 0.528094 0.054992
0.405360 0.580552 0.055006
0.393623 0.637931 0.055000
0.403147 0.707863 0.055002
0.427639 0.775309 0.054979
0.491702 0.836548 0.054983
0.596447 0.892276 0.054992
0.766033 0.922959 0.054992
1.000000 0.927983 0.055021
0.000000 0.119549 0.054954
0.142183 0.123932 0.054998
0.255461 0.141598 0.055000
0.332957 0.175043 0.055007
0.392713 0.214500 0.054989
0.423210 0.259717 0.054995
0.441724 0.309464 0.054993
0.431360 0.354899 0.055001
0.419433 0.405367 0.055003
0.397761 0.455692 0.055002
0.378136 0.511909 0.055002
0.354879 0.568659 0.054986
0.349017 0.633867 0.055020
0.357514 0.706186 0.055010
0.384000 0.777920 0.055020
0.443890 0.841302 0.054999
0.553830 0.898910 0.055005
0.736549 0.934288 0.054982
1.000000 0.939589 0.055071
0.000000 0.143400 0.055008
0.112919 0.146754 0.055015
0.206097 0.163024 0.054990
0.275072 0.192449 0.055007
0.328880 0.227283 0.055016
0.356130 0.267174 0.055020
0.373899 0.308395 0.054979
0.366160 0.349018 0.055004
0.362057 0.393632 0.054989
0.344045 0.442289 0.054999
0.331703 0.496960 0.055001
0.309463 0.558260 0.054980
0.308401 0.626103 0.055014
0.313895 0.703891 0.055006
0.342193 0.779126 0.054971
0.399781 0.847436 0.055009
0.514616 0.905437 0.054982
0.708633 0.944094 0.055005
1.000000 0.949408 0.054987
0.000000 0.174358 0.054997
0.081917 0.178394 0.054994
0.151504 0.190871 0.054994
0.206231 0.214171 0.054992
0.251172 0.241624 0.054986
0.277782 0.276075 0.054997
0.296053 0.313914 0.055004
0.293836 0.357505 0.054993
0.292112 0.403136 0.055010
0.281395 0.454355 0.055005
0.273821 0.511013 0.054989
0.259705 0.576811 0.055003
0.267193 0.643863 0.055008
0.276074 0.722240 0.054996
0.307733 0.795747 0.054998
0.367179 0.862322 0.054997
0.483238 0.915383 0.055004
0.688123 0.953906 0.054993
1.000000 0.958430 0.054958
0.000000 0.217615 0.054994
0.054205 0.222814 0.055016
0.103799 0.233265 0.055002
0.145984 0.252867 0.054993
0.181768 0.276890 0.054999
0.204260 0.307733 0.054996
0.220823 0.342218 0.055003
0.222069 0.383998 0.055005
0.224671 0.427666 0.055006
0.221335 0.479841 0.055012
0.219454 0.537161 0.054990
0.214501 0.607277 0.054991
0.227279 0.671123 0.055016
0.241621 0.748823 0.054997
0.276897 0.818254 0.054996
0.338985 0.880550 0.054994
0.455483 0.927035 0.055001
0.671131 0.963291 0.055031
1.000000 0.966826 0.054953
0.000000 0.293384 0.054990
0.033686 0.298284 0.054989
0.065934 0.305312 0.055003
0.094338 0.320048 0.055012
0.119466 0.338978 0.054990
0.137655 0.367208 0.054997
0.152552 0.399789 0.055005
0.158709 0.443877 0.055014
0.163449 0.491696 0.054990
0.165067 0.546053 0.055010
0.169168 0.602430 0.054987
0.175049 0.667039 0.055012
0.192447 0.724912 0.055003
0.214160 0.793774 0.054985
0.252857 0.853993 0.054998
0.320062 0.905673 0.055006
0.433407 0.942004 0.054994
0.658069 0.972577 0.055017
1.000000 0.975210 0.054993
0.000000 0.401913 0.055001
0.021030 0.406621 0.055002
0.040609 0.417371 0.054987
0.057999 0.433365 0.054984
0.072934 0.455521 0.055007
0.084599 0.483258 0.055007
0.094561 0.514631 0.055005
0.101074 0.553848 0.055007
0.107704 0.596469 0.054990
0.115779 0.642979 0.055009
0.126346 0.692806 0.055005
0.141599 0.744512 0.054991
0.163009 0.793913 0.055007
0.190872 0.848503 0.054984
0.233257 0.896199 0.055007
0.305315 0.934060 0.055004
0.417368 0.959386 0.054990
0.650166 0.981691 0.054997
1.000000 0.983550 0.055008
0.000000 0.641387 0.055026
0.009149 0.642808 0.055007
0.018296 0.650206 0.055019
0.027405 0.658130 0.055027
0.036696 0.671196 0.055039
0.046088 0.688125 0.055000
0.055899 0.708570 0.055013
0.065709 0.736534 0.054955
0.077045 0.765973 0.054970
0.089903 0.794182 0.055015
0.105229 0.826891 0.055004
0.123932 0.857793 0.055015
0.146745 0.887069 0.055015
0.178399 0.918093 0.054994
0.222820 0.945792 0.055007
0.298290 0.966312 0.054994
0.406631 0.978970 0.054998
0.642781 0.990846 0.055000
1.000000 0.991879 0.054911
0.000000 1.000000 0.054778
0.008097 1.000000 0.054832
0.016422 1.000000 0.054987
0.024764 1.000000 0.055039
0.033181 1.000000 0.055018
0.041569 1.000000 0.055000
0.050595 1.000000 0.054906
0.060411 1.000000 0.054980
0.072010 1.000000 0.054991
0.084733 1.000000 0.055090
0.100160 1.000000 0.054985
0.119478 1.000000 0.055009
0.143408 1.000000 0.055017
0.174359 1.000000 0.055026
0.217630 1.000000 0.054982
0.293385 1.000000 0.055002
0.401906 1.000000 0.054989
0.641405 1.000000 0.055021
1.000000 1.000000 0.054861
0.000000 0.000000 0.109898
0.358560 0.000000 0.110003
0.598178 0.000000 0.110014
0.706628 0.000000 0.109965
0.782390 0.000000 0.110023
0.825607 0.000000 0.109976
0.856582 0.000000 0.110031
0.880452 0.000000 0.110052
0.899873 0.000000 0.109985
0.915271 0.000000 0.110020
0.927999 0.000000 0.110035
0.939543 0.000000 0.110017
0.949392 0.000000 0.109933
0.958376 0.000000 0.109966
0.966711 0.000000 0.109956
0.975134 0.000000 0.109946
0.983472 0.000000 0.109894