# vtk DataFile Version 2.0
Mesh for Fierro
ASCII 
DATASET UNSTRUCTURED_GRID

POINTS 2527 float
0.000000 0.000000 0.000000
0.071276 0.000000 0.000000
0.141569 0.000000 0.000000
0.210592 0.000000 0.000000
0.277951 0.000000 0.000000
0.344003 0.000000 0.000000
0.407921 0.000000 0.000000
0.466813 0.000000 0.000000
0.523752 0.000000 0.000000
0.579239 0.000000 0.000000
0.632243 0.000000 0.000000
0.682085 0.000000 0.000000
0.730345 0.000000 0.000000
0.778114 0.000000 0.000000
0.824976 0.000000 0.000000
0.869831 0.000000 0.000000
0.913556 0.000000 0.000000
0.956897 0.000000 0.000000
1.000000 0.000000 0.000000
0.000000 0.043103 0.000000
0.071060 0.043337 0.000000
0.141157 0.043954 0.000000
0.210007 0.045007 0.000000
0.277210 0.046392 0.000000
0.343145 0.048148 0.000000
0.406740 0.050145 0.000000
0.465702 0.052387 0.000000
0.522629 0.054759 0.000000
0.577952 0.057165 0.000000
0.631181 0.059625 0.000000
0.681006 0.061965 0.000000
0.729126 0.064228 0.000000
0.777216 0.066220 0.000000
0.824175 0.067979 0.000000
0.869211 0.069388 0.000000
0.913090 0.070427 0.000000
0.956663 0.071060 0.000000
1.000000 0.071276 0.000000
0.000000 0.086444 0.000000
0.070427 0.086910 0.000000
0.139918 0.088133 0.000000
0.208172 0.090214 0.000000
0.274843 0.092947 0.000000
0.340332 0.096439 0.000000
0.403873 0.100371 0.000000
0.462327 0.104743 0.000000
0.519005 0.109392 0.000000
0.574443 0.114120 0.000000
0.627549 0.118873 0.000000
0.677627 0.123484 0.000000
0.726105 0.127886 0.000000
0.774456 0.131725 0.000000
0.821867 0.135141 0.000000
0.867413 0.137900 0.000000
0.911867 0.139918 0.000000
0.956046 0.141157 0.000000
1.000000 0.141569 0.000000
0.000000 0.130169 0.000000
0.069388 0.130789 0.000000
0.137900 0.132587 0.000000
0.205221 0.135554 0.000000
0.271049 0.139546 0.000000
0.335877 0.144509 0.000000
0.398803 0.150199 0.000000
0.456841 0.156689 0.000000
0.513271 0.163370 0.000000
0.568560 0.170321 0.000000
0.621878 0.177335 0.000000
0.672168 0.183979 0.000000
0.720827 0.190493 0.000000
0.769981 0.196182 0.000000
0.818056 0.201162 0.000000
0.864446 0.205221 0.000000
0.909786 0.208172 0.000000
0.954993 0.210007 0.000000
1.000000 0.210592 0.000000
0.000000 0.175024 0.000000
0.067979 0.175825 0.000000
0.135141 0.178133 0.000000
0.201162 0.181944 0.000000
0.265877 0.187038 0.000000
0.329713 0.193426 0.000000
0.392093 0.200840 0.000000
0.449326 0.209054 0.000000
0.505408 0.217632 0.000000
0.560598 0.226572 0.000000
0.614009 0.235409 0.000000
0.664691 0.243908 0.000000
0.713979 0.252254 0.000000
0.763887 0.259513 0.000000
0.812962 0.265877 0.000000
0.860454 0.271049 0.000000
0.907053 0.274843 0.000000
0.953608 0.277210 0.000000
1.000000 0.277951 0.000000
0.000000 0.221886 0.000000
0.066220 0.222784 0.000000
0.131725 0.225544 0.000000
0.196182 0.230019 0.000000
0.259513 0.236113 0.000000
0.322111 0.243640 0.000000
0.383441 0.252403 0.000000
0.440076 0.262037 0.000000
0.495653 0.272240 0.000000
0.550688 0.282820 0.000000
0.604452 0.293493 0.000000
0.655466 0.303589 0.000000
0.705060 0.313424 0.000000
0.756360 0.322111 0.000000
0.806574 0.329713 0.000000
0.855491 0.335877 0.000000
0.903561 0.340332 0.000000
0.951852 0.343145 0.000000
1.000000 0.344003 0.000000
0.000000 0.269655 0.000000
0.064228 0.270874 0.000000
0.127886 0.273895 0.000000
0.190493 0.279173 0.000000
0.252254 0.286021 0.000000
0.313424 0.294940 0.000000
0.373999 0.304847 0.000000
0.429481 0.315831 0.000000
0.484448 0.327590 0.000000
0.539374 0.339445 0.000000
0.593199 0.351552 0.000000
0.644910 0.363357 0.000000
0.695153 0.373999 0.000000
0.747597 0.383441 0.000000
0.799160 0.392093 0.000000
0.849801 0.398803 0.000000
0.899629 0.403873 0.000000
0.949855 0.406740 0.000000
1.000000 0.407921 0.000000
0.000000 0.317915 0.000000
0.061965 0.318994 0.000000
0.123484 0.322373 0.000000
0.183979 0.327832 0.000000
0.243908 0.335309 0.000000
0.303589 0.344534 0.000000
0.363357 0.355090 0.000000
0.417674 0.366881 0.000000
0.472179 0.379300 0.000000
0.527038 0.392268 0.000000
0.580804 0.405181 0.000000
0.633119 0.417674 0.000000
0.684169 0.429481 0.000000
0.737963 0.440076 0.000000
0.790946 0.449326 0.000000
0.843311 0.456841 0.000000
0.895257 0.462327 0.000000
0.947612 0.465702 0.000000
1.000000 0.466813 0.000000
0.000000 0.367757 0.000000
0.059625 0.368819 0.000000
0.118873 0.372451 0.000000
0.177335 0.378122 0.000000
0.235409 0.385991 0.000000
0.293493 0.395548 0.000000
0.351552 0.406801 0.000000
0.405181 0.419196 0.000000
0.459201 0.432015 0.000000
0.513710 0.445664 0.000000
0.567985 0.459201 0.000000
0.620700 0.472179 0.000000
0.672410 0.484448 0.000000
0.727760 0.495653 0.000000
0.782368 0.505408 0.000000
0.836630 0.513271 0.000000
0.890608 0.519005 0.000000
0.945241 0.522629 0.000000
1.000000 0.523752 0.000000
0.000000 0.420761 0.000000
0.057165 0.422048 0.000000
0.114120 0.425557 0.000000
0.170321 0.431440 0.000000
0.226572 0.439402 0.000000
0.282820 0.449312 0.000000
0.339445 0.460626 0.000000
0.392268 0.472962 0.000000
0.445664 0.486290 0.000000
0.500000 0.500000 0.000000
0.554336 0.513710 0.000000
0.607732 0.527038 0.000000
0.660555 0.539374 0.000000
0.717180 0.550688 0.000000
0.773428 0.560598 0.000000
0.829680 0.568560 0.000000
0.885880 0.574443 0.000000
0.942835 0.577952 0.000000
1.000000 0.579239 0.000000
0.000000 0.476248 0.000000
0.054759 0.477371 0.000000
0.109392 0.480995 0.000000
0.163370 0.486729 0.000000
0.217632 0.494592 0.000000
0.272240 0.504347 0.000000
0.327590 0.515552 0.000000
0.379300 0.527821 0.000000
0.432015 0.540799 0.000000
0.486290 0.554336 0.000000
0.540799 0.567985 0.000000
0.594819 0.580804 0.000000
0.648448 0.593199 0.000000
0.706507 0.604452 0.000000
0.764591 0.614009 0.000000
0.822665 0.621878 0.000000
0.881127 0.627549 0.000000
0.940375 0.631181 0.000000
1.000000 0.632243 0.000000
0.000000 0.533187 0.000000
0.052387 0.534298 0.000000
0.104743 0.537673 0.000000
0.156689 0.543159 0.000000
0.209054 0.550674 0.000000
0.262037 0.559924 0.000000
0.315831 0.570519 0.000000
0.366881 0.582326 0.000000
0.419196 0.594819 0.000000
0.472962 0.607732 0.000000
0.527821 0.620700 0.000000
0.582326 0.633119 0.000000
0.636643 0.644910 0.000000
0.696411 0.655466 0.000000
0.756092 0.664691 0.000000
0.816021 0.672168 0.000000
0.876516 0.677627 0.000000
0.938035 0.681006 0.000000
1.000000 0.682085 0.000000
0.000000 0.592079 0.000000
0.050145 0.593260 0.000000
0.100371 0.596127 0.000000
0.150199 0.601197 0.000000
0.200840 0.607907 0.000000
0.252403 0.616559 0.000000
0.304847 0.626001 0.000000
0.355090 0.636643 0.000000
0.406801 0.648448 0.000000
0.460626 0.660555 0.000000
0.515552 0.672410 0.000000
0.570519 0.684169 0.000000
0.626001 0.695153 0.000000
0.686576 0.705060 0.000000
0.747746 0.713979 0.000000
0.809507 0.720827 0.000000
0.872114 0.726105 0.000000
0.935771 0.729126 0.000000
1.000000 0.730345 0.000000
0.000000 0.655997 0.000000
0.048148 0.656855 0.000000
0.096439 0.659668 0.000000
0.144509 0.664123 0.000000
0.193426 0.670287 0.000000
0.243640 0.677889 0.000000
0.294940 0.686576 0.000000
0.344534 0.696411 0.000000
0.395548 0.706507 0.000000
0.449312 0.717180 0.000000
0.504347 0.727760 0.000000
0.559924 0.737963 0.000000
0.616559 0.747597 0.000000
0.677889 0.756360 0.000000
0.740487 0.763887 0.000000
0.803818 0.769981 0.000000
0.868275 0.774456 0.000000
0.933780 0.777216 0.000000
1.000000 0.778114 0.000000
0.000000 0.722049 0.000000
0.046392 0.722790 0.000000
0.092947 0.725157 0.000000
0.139546 0.728951 0.000000
0.187038 0.734123 0.000000
0.236113 0.740487 0.000000
0.286021 0.747746 0.000000
0.335309 0.756092 0.000000
0.385991 0.764591 0.000000
0.439402 0.773428 0.000000
0.494592 0.782368 0.000000
0.550674 0.790946 0.000000
0.607907 0.799160 0.000000
0.670287 0.806574 0.000000
0.734123 0.812962 0.000000
0.798838 0.818056 0.000000
0.864859 0.821867 0.000000
0.932020 0.824175 0.000000
1.000000 0.824976 0.000000
0.000000 0.789408 0.000000
0.045007 0.789993 0.000000
0.090214 0.791828 0.000000
0.135554 0.794779 0.000000
0.181944 0.798838 0.000000
0.230019 0.803818 0.000000
0.279173 0.809507 0.000000
0.327832 0.816021 0.000000
0.378122 0.822665 0.000000
0.431440 0.829680 0.000000
0.486729 0.836630 0.000000
0.543159 0.843311 0.000000
0.601197 0.849801 0.000000
0.664123 0.855491 0.000000
0.728951 0.860454 0.000000
0.794779 0.864446 0.000000
0.862100 0.867413 0.000000
0.930611 0.869211 0.000000
1.000000 0.869831 0.000000
0.000000 0.858431 0.000000
0.043954 0.858843 0.000000
0.088133 0.860082 0.000000
0.132587 0.862100 0.000000
0.178133 0.864859 0.000000
0.225544 0.868275 0.000000
0.273895 0.872114 0.000000
0.322373 0.876516 0.000000
0.372451 0.881127 0.000000
0.425557 0.885880 0.000000
0.480995 0.890608 0.000000
0.537673 0.895257 0.000000
0.596127 0.899629 0.000000
0.659668 0.903561 0.000000
0.725157 0.907053 0.000000
0.791828 0.909786 0.000000
0.860082 0.911867 0.000000
0.929572 0.913090 0.000000
1.000000 0.913556 0.000000
0.000000 0.928723 0.000000
0.043337 0.928939 0.000000
0.086910 0.929572 0.000000
0.130789 0.930611 0.000000
0.175825 0.932020 0.000000
0.222784 0.933780 0.000000
0.270874 0.935771 0.000000
0.318994 0.938035 0.000000
0.368819 0.940375 0.000000
0.422048 0.942835 0.000000
0.477371 0.945241 0.000000
0.534298 0.947612 0.000000
0.593260 0.949855 0.000000
0.656855 0.951852 0.000000
0.722790 0.953608 0.000000
0.789993 0.954993 0.000000
0.858843 0.956046 0.000000
0.928939 0.956663 0.000000
1.000000 0.956897 0.000000
0.000000 1.000000 0.000000
0.043103 1.000000 0.000000
0.086444 1.000000 0.000000
0.130169 1.000000 0.000000
0.175024 1.000000 0.000000
0.221886 1.000000 0.000000
0.269655 1.000000 0.000000
0.317915 1.000000 0.000000
0.367757 1.000000 0.000000
0.420761 1.000000 0.000000
0.476248 1.000000 0.000000
0.533187 1.000000 0.000000
0.592079 1.000000 0.000000
0.655997 1.000000 0.000000
0.722049 1.000000 0.000000
0.789408 1.000000 0.000000
0.858431 1.000000 0.000000
0.928723 1.000000 0.000000
1.000000 1.000000 0.000000
0.000000 0.000000 0.055000
0.071276 0.000000 0.055000
0.141569 0.000000 0.055000
0.210592 0.000000 0.055000
0.277951 0.000000 0.055000
[...]
POINT_DATA 2527 
VECTORS pos float 
0.000000 0.000000 0.000000
0.071276 0.000000 0.000000
0.141569 0.000000 0.000000
0.210592 0.000000 0.000000
0.277951 0.000000 0.000000
0.344003 0.000000 0.000000
0.407921 0.000000 0.000000
0.466813 0.000000 0.000000
0.523752 0.000000 0.000000
0.579239 0.000000 0.000000
0.632243 0.000000 0.000000
0.682085 0.000000 0.000000
0.730345 0.000000 0.000000
0.778114 0.000000 0.000000
0.824976 0.000000 0.000000
0.869831 0.000000 0.000000
0.913556 0.000000 0.000000
0.956897 0.000000 0.000000
1.000000 0.000000 0.000000
0.000000 0.043103 0.000000
0.071060 0.043337 0.000000
0.141157 0.043954 0.000000
0.210007 0.045007 0.000000
0.277210 0.046392 0.000000
0.343145 0.048148 0.000000
0.406740 0.050145 0.000000
0.465702 0.052387 0.000000
0.522629 0.054759 0.000000
0.577952 0.057165 0.000000
0.631181 0.059625 0.000000
0.681006 0.061965 0.000000
0.729126 0.064228 0.000000
0.777216 0.066220 0.000000
0.824175 0.067979 0.000000
0.869211 0.069388 0.000000
0.913090 0.070427 0.000000
0.956663 0.071060 0.000000
1.000000 0.071276 0.000000
0.000000 0.086444 0.000000
0.070427 0.086910 0.000000
0.139918 0.088133 0.000000
0.208172 0.090214 0.000000
0.274843 0.092947 0.000000
0.340332 0.096439 0.000000
0.403873 0.100371 0.000000
0.462327 0.104743 0.000000
0.519005 0.109392 0.000000
0.574443 0.114120 0.000000
0.627549 0.118873 0.000000
0.677627 0.123484 0.000000
0.726105 0.127886 0.000000
0.774456 0.131725 0.000000
0.821867 0.135141 0.000000
0.867413 0.137900 0.000000
0.911867 0.139918 0.000000
0.956046 0.141157 0.000000
1.000000 0.141569 0.000000
0.000000 0.130169 0.000000
0.069388 0.130789 0.000000
0.137900 0.132587 0.000000
0.205221 0.135554 0.000000
0.271049 0.139546 0.000000
0.335877 0.144509 0.000000
0.398803 0.150199 0.000000
0.456841 0.156689 0.000000
0.513271 0.163370 0.000000
0.568560 0.170321 0.000000
0.621878 0.177335 0.000000
0.672168 0.183979 0.000000
0.720827 0.190493 0.000000
0.769981 0.196182 0.000000
0.818056 0.201162 0.000000
0.864446 0.205221 0.000000
0.909786 0.208172 0.000000
0.954993 0.210007 0.000000
1.000000 0.210592 0.000000
0.000000 0.175024 0.000000
0.067979 0.175825 0.000000
0.135141 0.178133 0.000000
0.201162 0.181944 0.000000
0.265877 0.187038 0.000000
0.329713 0.193426 0.000000
0.392093 0.200840 0.000000
0.449326 0.209054 0.000000
0.505408 0.217632 0.000000
0.560598 0.226572 0.000000
0.614009 0.235409 0.000000
0.664691 0.243908 0.000000
0.713979 0.252254 0.000000
0.763887 0.259513 0.000000
0.812962 0.265877 0.000000
0.860454 0.271049 0.000000
0.907053 0.274843 0.000000
0.953608 0.277210 0.000000
1.000000 0.277951 0.000000
0.000000 0.221886 0.000000
0.066220 0.222784 0.000000
0.131725 0.225544 0.000000
0.196182 0.230019 0.000000
0.259513 0.236113 0.000000
0.322111 0.243640 0.000000
0.383441 0.252403 0.000000
0.440076 0.262037 0.000000
0.495653 0.272240 0.000000
0.550688 0.282820 0.000000
0.604452 0.293493 0.000000
0.655466 0.303589 0.000000
0.705060 0.313424 0.000000
0.756360 0.322111 0.000000
0.806574 0.329713 0.000000
0.855491 0.335877 0.000000
0.903561 0.340332 0.000000
0.951852 0.343145 0.000000
1.000000 0.344003 0.000000
0.000000 0.269655 0.000000
0.064228 0.270874 0.000000
0.127886 0.273895 0.000000
0.190493 0.279173 0.000000
0.252254 0.286021 0.000000
0.313424 0.294940 0.000000
0.373999 0.304847 0.000000
0.429481 0.315831 0.000000
0.484448 0.327590 0.000000
0.539374 0.339445 0.000000
0.593199 0.351552 0.000000
0.644910 0.363357 0.000000
0.695153 0.373999 0.000000
0.747597 0.383441 0.000000
0.799160 0.392093 0.000000
0.849801 0.398803 0.000000
0.899629 0.403873 0.000000
0.949855 0.406740 0.000000
1.000000 0.407921 0.000000
0.000000 0.317915 0.000000
0.061965 0.318994 0.000000
0.123484 0.322373 0.000000
0.183979 0.327832 0.000000
0.243908 0.335309 0.000000
0.303589 0.344534 0.000000
0.363357 0.355090 0.000000
0.417674 0.366881 0.000000
0.472179 0.379300 0.000000
0.527038 0.392268 0.000000
0.580804 0.405181 0.000000
0.633119 0.417674 0.000000
0.684169 0.429481 0.000000
0.737963 0.440076 0.000000
0.790946 0.449326 0.000000
0.843311 0.456841 0.000000
0.895257 0.462327 0.000000
0.947612 0.465702 0.000000
1.000000 0.466813 0.000000
0.000000 0.367757 0.000000
0.059625 0.368819 0.000000
0.118873 0.372451 0.000000
0.177335 0.378122 0.000000
0.235409 0.385991 0.000000
0.293493 0.395548 0.000000
0.351552 0.406801 0.000000
0.405181 0.419196 0.000000
0.459201 0.432015 0.000000
0.513710 0.445664 0.000000
0.567985 0.459201 0.000000
0.620700 0.472179 0.000000
0.672410 0.484448 0.000000
0.727760 0.495653 0.000000
0.782368 0.505408 0.000000
0.836630 0.513271 0.000000
0.890608 0.519005 0.000000
0.945241 0.522629 0.000000
1.000000 0.523752 0.000000
0.000000 0.420761 0.000000
0.057165 0.422048 0.000000
0.114120 0.425557 0.000000
0.170321 0.431440 0.000000
0.226572 0.439402 0.000000
0.282820 0.449312 0.000000
0.339445 0.460626 0.000000
0.392268 0.472962 0.000000
0.445664 0.486290 0.000000
0.500000 0.500000 0.000000
0.554336 0.513710 0.000000
0.607732 0.527038 0.000000
0.660555 0.539374 0.000000
0.717180 0.550688 0.000000
0.773428 0.560598 0.000000
0.829680 0.568560 0.000000
0.885880 0.574443 0.000000
0.942835 0.577952 0.000000
1.000000 0.579239 0.000000
0.000000 0.476248 0.000000
0.054759 0.477371 0.000000
0.109392 0.480995 0.000000
0.163370 0.486729 0.000000
0.217632 0.494592 0.000000
0.272240 0.504347 0.000000
0.327590 0.515552 0.000000
0.379300 0.527821 0.000000
0.432015 0.540799 0.000000
0.486290 0.554336 0.000000
0.540799 0.567985 0.000000
0.594819 0.580804 0.000000
0.648448 0.593199 0.000000
0.706507 0.604452 0.000000
0.764591 0.614009 0.000000
0.822665 0.621878 0.000000
0.881127 0.627549 0.000000
0.940375 0.631181 0.000000
1.000000 0.632243 0.000000
0.000000 0.533187 0.000000
0.052387 0.534298 0.000000
0.104743 0.537673 0.000000
0.156689 0.543159 0.000000
0.209054 0.550674 0.000000
0.262037 0.559924 0.000000
0.315831 0.570519 0.000000
0.366881 0.582326 0.000000
0.419196 0.594819 0.000000
0.472962 0.607732 0.000000
0.527821 0.620700 0.000000
0.582326 0.633119 0.000000
0.636643 0.644910 0.000000
0.696411 0.655466 0.000000
0.756092 0.664691 0.000000
0.816021 0.672168 0.000000
0.876516 0.677627 0.000000
0.938035 0.681006 0.000000
1.000000 0.682085 0.000000
0.000000 0.592079 0.000000
0.050145 0.593260 0.000000
0.100371 0.596127 0.000000
0.150199 0.601197 0.000000
0.200840 0.607907 0.000000
0.252403 0.616559 0.000000
0.304847 0.626001 0.000000
0.355090 0.636643 0.000000
0.406801 0.648448 0.000000
0.460626 0.660555 0.000000
0.515552 0.672410 0.000000
0.570519 0.684169 0.000000
0.626001 0.695153 0.000000
0.686576 0.705060 0.000000
0.747746 0.713979 0.000000
0.809507 0.720827 0.000000
0.872114 0.726105 0.000000
0.935771 0.729126 0.000000
1.000000 0.730345 0.000000
0.000000 0.655997 0.000000
0.048148 0.656855 0.000000
0.096439 0.659668 0.000000
0.144509 0.664123 0.000000
0.193426 0.670287 0.000000
0.243640 0.677889 0.000000
0.294940 0.686576 0.000000
0.344534 0.696411 0.000000
0.395548 0.706507 0.000000
0.449312 0.717180 0.000000
0.504347 0.727760 0.000000
0.559924 0.737963 0.000000
0.616559 0.747597 0.000000
0.677889 0.756360 0.000000
0.740487 0.763887 0.000000
0.803818 0.769981 0.000000
0.868275 0.774456 0.000000
0.933780 0.777216 0.000000
1.000000 0.778114 0.000000
0.000000 0.722049 0.000000
0.046392 0.722790 0.000000
0.092947 0.725157 0.000000
0.139546 0.728951 0.000000
0.187038 0.734123 0.000000
0.236113 0.740487 0.000000
0.286021 0.747746 0.000000
0.335309 0.756092 0.000000
0.385991 0.764591 0.000000
0.439402 0.773428 0.000000
0.494592 0.782368 0.000000
0.550674 0.790946 0.000000
0.607907 0.799160 0.000000
0.670287 0.806574 0.000000
0.734123 0.812962 0.000000
0.798838 0.818056 0.000000
0.864859 0.821867 0.000000
0.932020 0.824175 0.000000
1.000000 0.824976 0.000000
0.000000 0.789408 0.000000
0.045007 0.789993 0.000000
0.090214 0.791828 0.000000
0.135554 0.794779 0.000000
0.181944 0.798838 0.000000
0.230019 0.803818 0.000000
0.279173 0.809507 0.000000
0.327832 0.816021 0.000000
0.378122 0.822665 0.000000
0.431440 0.829680 0.000000
0.486729 0.836630 0.000000
0.543159 0.843311 0.000000
0.601197 0.849801 0.000000
0.664123 0.855491 0.000000
0.728951 0.860454 0.000000
0.794779 0.864446 0.000000
0.862100 0.867413 0.000000
0.930611 0.869211 0.000000
1.000000 0.869831 0.000000
0.000000 0.858431 0.000000
0.043954 0.858843 0.000000
0.088133 0.860082 0.000000
0.132587 0.862100 0.000000
0.178133 0.864859 0.000000
0.225544 0.868275 0.000000
0.273895 0.872114 0.000000
0.322373 0.876516 0.000000
0.372451 0.881127 0.000000
0.425557 0.885880 0.000000
0.480995 0.890608 0.000000
0.537673 0.895257 0.000000
0.596127 0.899629 0.000000
0.659668 0.903561 0.000000
0.725157 0.907053 0.000000
0.791828 0.909786 0.000000
0.860082 0.911867 0.000000
0.929572 0.913090 0.000000
1.000000 0.913556 0.000000
0.000000 0.928723 0.000000
0.043337 0.928939 0.000000
0.086910 0.929572 0.000000
0.130789 0.930611 0.000000
0.175825 0.932020 0.000000
0.222784 0.933780 0.000000
0.270874 0.935771 0.000000
0.318994 0.938035 0.000000
0.368819 0.940375 0.000000
0.422048 0.942835 0.000000
0.477371 0.945241 0.000000
0.534298 0.947612 0.000000
0.593260 0.949855 0.000000
0.656855 0.951852 0.000000
0.722790 0.953608 0.000000
0.789993 0.954993 0.000000
0.858843 0.956046 0.000000
0.928939 0.956663 0.000000
1.000000 0.956897 0.000000
0.000000 1.000000 0.000000
0.043103 1.000000 0.000000
0.086444 1.000000 0.000000
0.130169 1.000000 0.000000
0.175024 1.000000 0.000000
0.221886 1.000000 0.000000
0.269655 1.000000 0.000000
0.317915 1.000000 0.000000
0.367757 1.000000 0.000000
0.420761 1.000000 0.000000
0.476248 1.000000 0.000000
0.533187 1.000000 0.000000
0.592079 1.000000 0.000000
0.655997 1.000000 0.000000
0.722049 1.000000 0.000000
0.789408 1.000000 0.000000
0.858431 1.000000 0.000000
0.928723 1.000000 0.000000
1.000000 1.000000 0.000000
0.000000 0.000000 0.055000
0.071276 0.000000 0.055000
0.141569 0.000000 0.055000
0.210592 0.000000 0.055000
0.277951 0.000000 0.055000
0.344003 0.000000 0.055000
0.407921 0.000000 0.055000
0.466813 0.000000 0.055000
0.523752 0.000000 0.055000
0.579239 0.000000 0.055000
0.632243 0.000000 0.055000
0.682085 0.000000 0.055000
0.730345 0.000000 0.055000
0.778114 0.000000 0.055000
0.824976 0.000000 0.055000
0.869831 0.000000 0.055000
0.913556 0.000000 0.055000
0.956897 0.000000 0.055000
1.000000 0.000000 0.055000
0.000000 0.043103 0.055000
0.071060 0.043337 0.055000
0.141157 0.043954 0.055000
0.210007 0.045007 0.055000
0.277210 0.046392 0.055000
0.343145 0.048148 0.055000
0.406740 0.050145 0.055000
0.465702 0.052387 0.055000
0.522629 0.054759 0.055000
0.577952 0.057165 0.055000
0.631181 0.059625 0.055000
0.681006 0.061965 0.055000
0.729126 0.064228 0.055000
0.777216 0.066220 0.055000
0.824175 0.067979 0.055000
0.869211 0.069388 0.055000
0.913090 0.070427 0.055000
0.956663 0.071060 0.055000
1.000000 0.071276 0.055000
0.000000 0.086444 0.055000
0.070427 0.086910 0.055000
0.139918 0.088133 0.055000
0.208172 0.090214 0.055000
0.274843 0.092947 0.055000
0.340332 0.096439 0.055000
0.403873 0.100371 0.055000
0.462327 0.104743 0.055000
0.519005 0.109392 0.055000
0.574443 0.114120 0.055000
0.627549 0.118873 0.055000
0.677627 0.123484 0.055000
0.726105 0.127886 0.055000
0.774456 0.131725 0.055000
0.821867 0.135141 0.055000
0.867413 0.137900 0.055000
0.911867 0.139918 0.055000
0.956046 0.141157 0.055000
1.000000 0.141569 0.055000
0.000000 0.130169 0.055000
0.069388 0.130789 0.055000
0.137900 0.132587 0.055000
0.205221 0.135554 0.055000
0.271049 0.139546 0.055000
0.335877 0.144509 0.055000
0.398803 0.150199 0.055000
0.456841 0.156689 0.055000
0.513271 0.163370 0.055000
0.568560 0.170321 0.055000
0.621878 0.177335 0.055000
0.672168 0.183979 0.055000
0.720827 0.190493 0.055000
0.769981 0.196182 0.055000
0.818056 0.201162 0.055000
0.864446 0.205221 0.055000
0.909786 0.208172 0.055000
0.954993 0.210007 0.055000
1.000000 0.210592 0.055000
0.000000 0.175024 0.055000
0.067979 0.175825 0.055000
0.135141 0.178133 0.055000
0.201162 0.181944 0.055000
0.265877 0.187038 0.055000
0.329713 0.193426 0.055000
0.392093 0.200840 0.055000
0.449326 0.209054 0.055000
0.505408 0.217632 0.055000
0.560598 0.226572 0.055000
0.614009 0.235409 0.055000
0.664691 0.243908 0.055000
0.713979 0.252254 0.055000
0.763887 0.259513 0.055000
0.812962 0.265877 0.055000
0.860454 0.271049 0.055000
0.907053 0.274843 0.055000
0.953608 0.277210 0.055000
1.000000 0.277951 0.055000
0.000000 0.221886 0.055000
0.066220 0.222784 0.055000
0.131725 0.225544 0.055000
0.196182 0.230019 0.055000
0.259513 0.236113 0.055000
0.322111 0.243640 0.055000
0.383441 0.252403 0.055000
0.440076 0.262037 0.055000
0.495653 0.272240 0.055000
0.550688 0.282820 0.055000
0.604452 0.293493 0.055000
0.655466 0.303589 0.055000
0.705060 0.313424 0.055000
0.756360 0.322111 0.055000
0.806574 0.329713 0.055000
0.855491 0.335877 0.055000
0.903561 0.340332 0.055000
0.951852 0.343145 0.055000
1.000000 0.344003 0.055000
0.000000 0.269655 0.055000
0.064228 0.270874 0.055000
0.127886 0.273895 0.055000
0.190493 0.279173 0.055000
0.252254 0.286021 0.055000
0.313424 0.294940 0.055000
0.373999 0.304847 0.055000
0.429481 0.315831 0.055000
0.484448 0.327590 0.055000
0.539374 0.339445 0.055000
0.593199 0.351552 0.055000
0.644910 0.363357 0.055000
0.695153 0.373999 0.055000
0.747597 0.383441 0.055000
0.799160 0.392093 0.055000
0.849801 0.398803 0.055000
0.899629 0.403873 0.055000
0.949855 0.406740 0.055000
1.000000 0.407921 0.055000
0.000000 0.317915 0.055000
0.061965 0.318994 0.055000
0.123484 0.322373 0.055000
0.183979 0.327832 0.055000
0.243908 0.335309 0.055000
0.303589 0.344534 0.055000
0.363357 0.355090 0.055000
0.417674 0.366881 0.055000
0.472179 0.379300 0.055000
0.527038 0.392268 0.055000
0.580804 0.405181 0.055000
0.633119 0.417674 0.055000
0.684169 0.429481 0.055000
0.737963 0.440076 0.055000
0.790946 0.449326 0.055000
0.843311 0.456841 0.055000
0.895257 0.462327 0.055000
0.947612 0.465702 0.055000
1.000000 0.466813 0.055000
0.000000 0.367757 0.055000
0.059625 0.368819 0.055000
0.118873 0.372451 0.055000
0.177335 0.378122 0.055000
0.235409 0.385991 0.055000
0.293493 0.395548 0.055000
0.351552 0.406801 0.055000
0.405181 0.419196 0.055000
0.459201 0.432015 0.055000
0.513710 0.445664 0.055000
0.567985 0.459201 0.055000
0.620700 0.472179 0.055000
0.672410 0.484448 0.055000
0.727760 0.495653 0.055000
0.782368 0.505408 0.055000
0.836630 0.513271 0.055000
0.890608 0.519005 0.055000
0.945241 0.522629 0.055000
1.000000 0.523752 0.055000
0.000000 0.420761 0.055000
0.057165 0.422048 0.055000
0.114120 0.425557 0.055000
0.170321 0.431440 0.055000
0.226572 0.439402 0.055000
0.282820 0.449312 0.055000
0.339445 0.460626 0.055000
0.392268 0.472962 0.055000
0.445664 0.486290 0.055000
0.500000 0.500000 0.055000
0.554336 0.513710 0.055000
0.607732 0.527038 0.055000
0.660555 0.539374 0.055000
0.717180 0.550688 0.055000
0.773428 0.560598 0.055000
0.829680 0.568560 0.055000
0.885880 0.574443 0.055000
0.942835 0.577952 0.055000
1.000000 0.579239 0.055000
0.000000 0.476248 0.055000
0.054759 0.477371 0.055000
0.109392 0.480995 0.055000
0.163370 0.486729 0.055000
0.217632 0.494592 0.055000
0.272240 0.504347 0.055000
0.327590 0.515552 0.055000
0.379300 0.527821 0.055000
0.432015 0.540799 0.055000
0.486290 0.554336 0.055000
0.540799 0.567985 0.055000
0.594819 0.580804 0.055000
0.648448 0.593199 0.055000
0.706507 0.604452 0.055000
0.764591 0.614009 0.055000
0.822665 0.621878 0.055000
0.881127 0.627549 0.055000
0.940375 0.631181 0.055000
1.000000 0.632243 0.055000
0.000000 0.533187 0.055000
0.052387 0.534298 0.055000
0.104743 0.537673 0.055000
0.156689 0.543159 0.055000
0.209054 0.550674 0.055000
0.262037 0.559924 0.055000
0.315831 0.570519 0.055000
0.366881 0.582326 0.055000
0.419196 0.594819 0.055000
0.472962 0.607732 0.055000
0.527821 0.620700 0.055000
0.582326 0.633119 0.055000
0.636643 0.644910 0.055000
0.696411 0.655466 0.055000
0.756092 0.664691 0.055000
0.816021 0.672168 0.055000
0.876516 0.677627 0.055000
0.938035 0.681006 0.055000
1.000000 0.682085 0.055000
0.000000 0.592079 0.055000
0.050145 0.593260 0.055000
0.100371 0.596127 0.055000
0.150199 0.601197 0.055000
0.200840 0.607907 0.055000
0.252403 0.616559 0.055000
0.304847 0.626001 0.055000
0.355090 0.636643 0.055000
0.406801 0.648448 0.055000
0.460626 0.660555 0.055000
0.515552 0.672410 0.055000
0.570519 0.684169 0.055000
0.626001 0.695153 0.055000
0.686576 0.705060 0.055000
0.747746 0.713979 0.055000
0.809507 0.720827 0.055000
0.872114 0.726105 0.055000
0.935771 0.729126 0.055000
1.000000 0.730345 0.055000
0.000000 0.655997 0.055000
0.048148 0.656855 0.055000
0.096439 0.659668 0.055000
0.144509 0.664123 0.055000
0.193426 0.670287 0.055000
0.243640 0.677889 0.055000
0.294940 0.686576 0.055000
0.344534 0.696411 0.055000
0.395548 0.706507 0.055000
0.449312 0.717180 0.055000
0.504347 0.727760 0.055000
0.559924 0.737963 0.055000
0.616559 0.747597 0.055000
0.677889 0.756360 0.055000
0.740487 0.763887 0.055000
0.803818 0.769981 0.055000
0.868275 0.774456 0.055000
0.933780 0.777216 0.055000
1.000000 0.778114 0.055000
0.000000 0.722049 0.055000
0.046392 0.722790 0.055000
0.092947 0.725157 0.055000
0.139546 0.728951 0.055000
0.187038 0.734123 0.055000
0.236113 0.740487 0.055000
0.286021 0.747746 0.055000
0.335309 0.756092 0.055000
0.385991 0.764591 0.055000
0.439402 0.773428 0.055000
0.494592 0.782368 0.055000
0.550674 0.790946 0.055000
0.607907 0.799160 0.055000
0.670287 0.806574 0.055000
0.734123 0.812962 0.055000
0.798838 0.818056 0.055000
0.864859 0.821867 0.055000
0.932020 0.824175 0.055000
1.000000 0.824976 0.055000
0.000000 0.789408 0.055000
0.045007 0.789993 0.055000
0.090214 0.791828 0.055000
0.135554 0.794779 0.055000
0.181944 0.798838 0.055000
0.230019 0.803818 0.055000
0.279173 0.809507 0.055000
0.327832 0.816021 0.055000
0.378122 0.822665 0.055000
0.431440 0.829680 0.055000
0.486729 0.836630 0.055000
0.543159 0.843311 0.055000
0.601197 0.849801 0.055000
0.664123 0.855491 0.055000
0.728951 0.860454 0.055000
0.794779 0.864446 0.055000
0.862100 0.867413 0.055000
0.930611 0.869211 0.055000
1.000000 0.869831 0.055000
0.000000 0.858431 0.055000
0.043954 0.858843 0.055000
0.088133 0.860082 0.055000
0.132587 0.862100 0.055000
0.178133 0.864859 0.055000
0.225544 0.868275 0.055000
0.273895 0.872114 0.055000
0.322373 0.876516 0.055000
0.372451 0.881127 0.055000
0.425557 0.885880 0.055000
0.480995 0.890608 0.055000
0.537673 0.895257 0.055000
0.596127 0.899629 0.055000
0.659668 0.903561 0.055000
0.725157 0.907053 0.055000
0.791828 0.909786 0.055000
0.860082 0.911867 0.055000
0.929572 0.913090 0.055000
1.000000 0.913556 0.055000
0.000000 0.928723 0.055000
0.043337 0.928939 0.055000
0.086910 0.929572 0.055000
0.130789 0.930611 0.055000
0.175825 0.932020 0.055000
0.222784 0.933780 0.055000
0.270874 0.935771 0.055000
0.318994 0.938035 0.055000
0.368819 0.940375 0.055000
0.422048 0.942835 0.055000
0.477371 0.945241 0.055000
0.534298 0.947612 0.055000
0.593260 0.949855 0.055000
0.656855 0.951852 0.055000
0.722790 0.953608 0.055000
0.789993 0.954993 0.055000
0.858843 0.956046 0.055000
0.928939 0.956663 0.055000
1.000000 0.956897 0.055000
0.000000 1.000000 0.055000
0.043103 1.000000 0.055000
0.086444 1.000000 0.055000
0.130169 1.000000 0.055000
0.175024 1.000000 0.055000
0.221886 1.000000 0.055000
0.269655 1.000000 0.055000
0.317915 1.000000 0.055000
0.367757 1.000000 0.055000
0.420761 1.000000 0.055000
0.476248 1.000000 0.055000
0.533187 1.000000 0.055000
0.592079 1.000000 0.055000
0.655997 1.000000 0.055000
0.722049 1.000000 0.055000
0.789408 1.000000 0.055000
0.858431 1.000000 0.055000
0.928723 1.000000 0.055000
1.000000 1.000000 0.055000
0.000000 0.000000 0.110000
0.071276 0.000000 0.110000
0.141569 0.000000 0.110000
0.210592 0.000000 0.110000
0.277951 0.000000 0.110000
0.344003 0.000000 0.110000
0.407921 0.000000 0.110000
0.466813 0.000000 0.110000
0.523752 0.000000 0.110000
0.579239 0.000000 0.110000
0.632243 0.000000 0.110000
0.682085 0.000000 0.110000
0.730345 0.000000 0.110000
0.778114 0.000000 0.110000
0.824976 0.000000 0.110000
0.869831 0.000000 0.110000
0.913556 0.000000 0.110000