# vtk DataFile Version 2.0
Mesh for Fierro
ASCII 
DATASET UNSTRUCTURED_GRID

POINTS 2527 float
0.000000 0.000000 0.000000
0.059126 0.000000 0.000000
0.118170 0.000000 0.000000
0.176872 0.000000 0.000000
0.235365 0.000000 0.000000
0.293351 0.000000 0.000000
0.351209 0.000000 0.000000
0.407826 0.000000 0.000000
0.464193 0.000000 0.000000
0.519985 0.000000 0.000000
0.575170 0.000000 0.000000
0.629729 0.000000 0.000000
0.683418 0.000000 0.000000
0.737289 0.000000 0.000000
0.790348 0.000000 0.000000
0.843142 0.000000 0.000000
0.895510 0.000000 0.000000
0.947830 0.000000 0.000000
1.000000 0.000000 0.000000
0.000000 0.052170 0.000000
0.059074 0.052223 0.000000
0.118064 0.052380 0.000000
0.176721 0.052636 0.000000
0.235167 0.052984 0.000000
0.293123 0.053412 0.000000
0.350936 0.053911 0.000000
0.407544 0.054460 0.000000
0.463899 0.055045 0.000000
0.519676 0.055649 0.000000
0.574873 0.056253 0.000000
0.629448 0.056837 0.000000
0.683148 0.057387 0.000000
0.737059 0.057885 0.000000
0.790152 0.058313 0.000000
0.842990 0.058661 0.000000
0.895406 0.058917 0.000000
0.947776 0.059074 0.000000
1.000000 0.059126 0.000000
0.000000 0.104490 0.000000
0.058917 0.104594 0.000000
0.117757 0.104902 0.000000
0.176268 0.105407 0.000000
0.234589 0.106091 0.000000
0.292427 0.106935 0.000000
0.350166 0.107912 0.000000
0.406693 0.108990 0.000000
0.463006 0.110142 0.000000
0.518778 0.111328 0.000000
0.573983 0.112514 0.000000
0.628597 0.113669 0.000000
0.682374 0.114746 0.000000
0.736365 0.115723 0.000000
0.789572 0.116569 0.000000
0.842538 0.117251 0.000000
0.895098 0.117757 0.000000
0.947620 0.118064 0.000000
1.000000 0.118170 0.000000
0.000000 0.156858 0.000000
0.058661 0.157010 0.000000
0.117251 0.157462 0.000000
0.175533 0.158198 0.000000
0.233639 0.159199 0.000000
0.291302 0.160431 0.000000
0.348884 0.161864 0.000000
0.405313 0.163445 0.000000
0.461559 0.165127 0.000000
0.517304 0.166867 0.000000
0.572535 0.168606 0.000000
0.627216 0.170285 0.000000
0.681094 0.171867 0.000000
0.735239 0.173300 0.000000
0.788624 0.174531 0.000000
0.841802 0.175533 0.000000
0.894593 0.176268 0.000000
0.947363 0.176721 0.000000
1.000000 0.176872 0.000000
0.000000 0.209652 0.000000
0.058313 0.209848 0.000000
0.116569 0.210428 0.000000
0.174531 0.211376 0.000000
0.232355 0.212662 0.000000
0.289767 0.214249 0.000000
0.347163 0.216086 0.000000
0.403431 0.218112 0.000000
0.459590 0.220277 0.000000
0.515307 0.222506 0.000000
0.570564 0.224736 0.000000
0.625336 0.226905 0.000000
0.679366 0.228930 0.000000
0.733706 0.230767 0.000000
0.787338 0.232355 0.000000
0.840801 0.233639 0.000000
0.893909 0.234589 0.000000
0.947016 0.235167 0.000000
1.000000 0.235365 0.000000
0.000000 0.262711 0.000000
0.057885 0.262941 0.000000
0.115723 0.263635 0.000000
0.173300 0.264761 0.000000
0.230767 0.266294 0.000000
0.287883 0.268179 0.000000
0.345014 0.270377 0.000000
0.401124 0.272795 0.000000
0.457161 0.275371 0.000000
0.512839 0.278039 0.000000
0.568140 0.280700 0.000000
0.623024 0.283266 0.000000
0.677224 0.285689 0.000000
0.731821 0.287883 0.000000
0.785751 0.289767 0.000000
0.839569 0.291302 0.000000
0.893065 0.292427 0.000000
0.946587 0.293123 0.000000
1.000000 0.293351 0.000000
0.000000 0.316582 0.000000
0.057387 0.316852 0.000000
0.114746 0.317626 0.000000
0.171867 0.318906 0.000000
0.228930 0.320634 0.000000
0.285689 0.322776 0.000000
0.342544 0.325242 0.000000
0.398440 0.327968 0.000000
0.454342 0.330886 0.000000
0.509979 0.333879 0.000000
0.565322 0.336889 0.000000
0.620337 0.339827 0.000000
0.674758 0.342544 0.000000
0.729623 0.345014 0.000000
0.783914 0.347163 0.000000
0.838136 0.348884 0.000000
0.892088 0.350166 0.000000
0.946089 0.350936 0.000000
1.000000 0.351209 0.000000
0.000000 0.370271 0.000000
0.056837 0.370552 0.000000
0.113669 0.371403 0.000000
0.170285 0.372784 0.000000
0.226905 0.374664 0.000000
0.283266 0.376976 0.000000
0.339827 0.379663 0.000000
0.395468 0.382629 0.000000
0.451241 0.385789 0.000000
0.506834 0.389055 0.000000
0.562218 0.392316 0.000000
0.617371 0.395468 0.000000
0.672032 0.398440 0.000000
0.727205 0.401124 0.000000
0.781888 0.403431 0.000000
0.836555 0.405313 0.000000
0.891010 0.406693 0.000000
0.945540 0.407544 0.000000
1.000000 0.407826 0.000000
0.000000 0.424830 0.000000
0.056253 0.425127 0.000000
0.112514 0.426017 0.000000
0.168606 0.427465 0.000000
0.224736 0.429436 0.000000
0.280700 0.431860 0.000000
0.336889 0.434678 0.000000
0.392316 0.437782 0.000000
0.447928 0.441091 0.000000
0.503468 0.444511 0.000000
0.558909 0.447928 0.000000
0.614211 0.451241 0.000000
0.669114 0.454342 0.000000
0.724629 0.457161 0.000000
0.779723 0.459590 0.000000
0.834873 0.461559 0.000000
0.889858 0.463006 0.000000
0.944955 0.463899 0.000000
1.000000 0.464193 0.000000
0.000000 0.480015 0.000000
0.055649 0.480324 0.000000
0.111328 0.481222 0.000000
0.166867 0.482696 0.000000
0.222506 0.484693 0.000000
0.278039 0.487161 0.000000
0.333879 0.490021 0.000000
0.389055 0.493166 0.000000
0.444511 0.496532 0.000000
0.500000 0.500000 0.000000
0.555489 0.503468 0.000000
0.610945 0.506834 0.000000
0.666121 0.509979 0.000000
0.721961 0.512839 0.000000
0.777494 0.515307 0.000000
0.833133 0.517304 0.000000
0.888672 0.518778 0.000000
0.944351 0.519676 0.000000
1.000000 0.519985 0.000000
0.000000 0.535807 0.000000
0.055045 0.536101 0.000000
0.110142 0.536994 0.000000
0.165127 0.538441 0.000000
0.220277 0.540410 0.000000
0.275371 0.542839 0.000000
0.330886 0.545658 0.000000
0.385789 0.548759 0.000000
0.441091 0.552072 0.000000
0.496532 0.555489 0.000000
0.552072 0.558909 0.000000
0.607684 0.562218 0.000000
0.663111 0.565322 0.000000
0.719300 0.568140 0.000000
0.775264 0.570564 0.000000
0.831394 0.572535 0.000000
0.887486 0.573983 0.000000
0.943746 0.574873 0.000000
1.000000 0.575170 0.000000
0.000000 0.592174 0.000000
0.054460 0.592456 0.000000
0.108990 0.593307 0.000000
0.163445 0.594687 0.000000
0.218112 0.596569 0.000000
0.272795 0.598876 0.000000
0.327968 0.601560 0.000000
0.382629 0.604532 0.000000
0.437782 0.607684 0.000000
0.493166 0.610945 0.000000
0.548759 0.614211 0.000000
0.604532 0.617371 0.000000
0.660173 0.620337 0.000000
0.716734 0.623024 0.000000
0.773095 0.625336 0.000000
0.829715 0.627216 0.000000
0.886331 0.628597 0.000000
0.943163 0.629448 0.000000
1.000000 0.629729 0.000000
0.000000 0.648791 0.000000
0.053911 0.649064 0.000000
0.107912 0.649834 0.000000
0.161864 0.651116 0.000000
0.216086 0.652837 0.000000
0.270377 0.654986 0.000000
0.325242 0.657456 0.000000
0.379663 0.660173 0.000000
0.434678 0.663111 0.000000
0.490021 0.666121 0.000000
0.545658 0.669114 0.000000
0.601560 0.672032 0.000000
0.657456 0.674758 0.000000
0.714311 0.677224 0.000000
0.771070 0.679366 0.000000
0.828133 0.681094 0.000000
0.885254 0.682374 0.000000
0.942613 0.683148 0.000000
1.000000 0.683418 0.000000
0.000000 0.706649 0.000000
0.053412 0.706877 0.000000
0.106935 0.707573 0.000000
0.160431 0.708698 0.000000
0.214249 0.710233 0.000000
0.268179 0.712117 0.000000
0.322776 0.714311 0.000000
0.376976 0.716734 0.000000
0.431860 0.719300 0.000000
0.487161 0.721961 0.000000
0.542839 0.724629 0.000000
0.598876 0.727205 0.000000
0.654986 0.729623 0.000000
0.712117 0.731821 0.000000
0.769233 0.733706 0.000000
0.826700 0.735239 0.000000
0.884277 0.736365 0.000000
0.942115 0.737059 0.000000
1.000000 0.737289 0.000000
0.000000 0.764635 0.000000
0.052984 0.764833 0.000000
0.106091 0.765411 0.000000
0.159199 0.766361 0.000000
0.212662 0.767645 0.000000
0.266294 0.769233 0.000000
0.320634 0.771070 0.000000
0.374664 0.773095 0.000000
0.429436 0.775264 0.000000
0.484693 0.777494 0.000000
0.540410 0.779723 0.000000
0.596569 0.781888 0.000000
0.652837 0.783914 0.000000
0.710233 0.785751 0.000000
0.767645 0.787338 0.000000
0.825469 0.788624 0.000000
0.883431 0.789572 0.000000
0.941687 0.790152 0.000000
1.000000 0.790348 0.000000
0.000000 0.823128 0.000000
0.052636 0.823279 0.000000
0.105407 0.823732 0.000000
0.158198 0.824467 0.000000
0.211376 0.825469 0.000000
0.264761 0.826700 0.000000
0.318906 0.828133 0.000000
0.372784 0.829715 0.000000
0.427465 0.831394 0.000000
0.482696 0.833133 0.000000
0.538441 0.834873 0.000000
0.594687 0.836555 0.000000
0.651116 0.838136 0.000000
0.708698 0.839569 0.000000
0.766361 0.840801 0.000000
0.824467 0.841802 0.000000
0.882749 0.842538 0.000000
0.941339 0.842990 0.000000
1.000000 0.843142 0.000000
0.000000 0.881830 0.000000
0.052380 0.881936 0.000000
0.104902 0.882243 0.000000
0.157462 0.882749 0.000000
0.210428 0.883431 0.000000
0.263635 0.884277 0.000000
0.317626 0.885254 0.000000
0.371403 0.886331 0.000000
0.426017 0.887486 0.000000
0.481222 0.888672 0.000000
0.536994 0.889858 0.000000
0.593307 0.891010 0.000000
0.649834 0.892088 0.000000
0.707573 0.893065 0.000000
0.765411 0.893909 0.000000
0.823732 0.894593 0.000000
0.882243 0.895098 0.000000
0.941083 0.895406 0.000000
1.000000 0.895510 0.000000
0.000000 0.940873 0.000000
0.052223 0.940926 0.000000
0.104594 0.941083 0.000000
0.157010 0.941339 0.000000
0.209848 0.941687 0.000000
0.262941 0.942115 0.000000
0.316852 0.942613 0.000000
0.370552 0.943163 0.000000
0.425127 0.943746 0.000000
0.480324 0.944351 0.000000
0.536101 0.944955 0.000000
0.592456 0.945540 0.000000
0.649064 0.946089 0.000000
0.706877 0.946587 0.000000
0.764833 0.947016 0.000000
0.823279 0.947363 0.000000
0.881936 0.947620 0.000000
0.940926 0.947776 0.000000
1.000000 0.947830 0.000000
0.000000 1.000000 0.000000
0.052170 1.000000 0.000000
0.104490 1.000000 0.000000
0.156858 1.000000 0.000000
0.209652 1.000000 0.000000
0.262711 1.000000 0.000000
0.316582 1.000000 0.000000
0.370271 1.000000 0.000000
0.424830 1.000000 0.000000
0.480015 1.000000 0.000000
0.535807 1.000000 0.000000
0.592174 1.000000 0.000000
0.648791 1.000000 0.000000
0.706649 1.000000 0.000000
0.764635 1.000000 0.000000
0.823128 1.000000 0.000000
0.881830 1.000000 0.000000
0.940873 1.000000 0.000000
1.000000 1.000000 0.000000
0.000000 0.000000 0.055000
0.059126 0.000000 0.055000
0.118170 0.000000 0.055000
0.176872 0.000000 0.055000
0.235365 0.000000 0.055000
[...]
POINT_DATA 2527 
VECTORS pos float 
0.000000 0.000000 0.000000
0.059126 0.000000 0.000000
0.118170 0.000000 0.000000
0.176872 0.000000 0.000000
0.235365 0.000000 0.000000
0.293351 0.000000 0.000000
0.351209 0.000000 0.000000
0.407826 0.000000 0.000000
0.464193 0.000000 0.000000
0.519985 0.000000 0.000000
0.575170 0.000000 0.000000
0.629729 0.000000 0.000000
0.683418 0.000000 0.000000
0.737289 0.000000 0.000000
0.790348 0.000000 0.000000
0.843142 0.000000 0.000000
0.895510 0.000000 0.000000
0.947830 0.000000 0.000000
1.000000 0.000000 0.000000
0.000000 0.052170 0.000000
0.059074 0.052223 0.000000
0.118064 0.052380 0.000000
0.176721 0.052636 0.000000
0.235167 0.052984 0.000000
0.293123 0.053412 0.000000
0.350936 0.053911 0.000000
0.407544 0.054460 0.000000
0.463899 0.055045 0.000000
0.519676 0.055649 0.000000
0.574873 0.056253 0.000000
0.629448 0.056837 0.000000
0.683148 0.057387 0.000000
0.737059 0.057885 0.000000
0.790152 0.058313 0.000000
0.842990 0.058661 0.000000
0.895406 0.058917 0.000000
0.947776 0.059074 0.000000
1.000000 0.059126 0.000000
0.000000 0.104490 0.000000
0.058917 0.104594 0.000000
0.117757 0.104902 0.000000
0.176268 0.105407 0.000000
0.234589 0.106091 0.000000
0.292427 0.106935 0.000000
0.350166 0.107912 0.000000
0.406693 0.108990 0.000000
0.463006 0.110142 0.000000
0.518778 0.111328 0.000000
0.573983 0.112514 0.000000
0.628597 0.113669 0.000000
0.682374 0.114746 0.000000
0.736365 0.115723 0.000000
0.789572 0.116569 0.000000
0.842538 0.117251 0.000000
0.895098 0.117757 0.000000
0.947620 0.118064 0.000000
1.000000 0.118170 0.000000
0.000000 0.156858 0.000000
0.058661 0.157010 0.000000
0.117251 0.157462 0.000000
0.175533 0.158198 0.000000
0.233639 0.159199 0.000000
0.291302 0.160431 0.000000
0.348884 0.161864 0.000000
0.405313 0.163445 0.000000
0.461559 0.165127 0.000000
0.517304 0.166867 0.000000
0.572535 0.168606 0.000000
0.627216 0.170285 0.000000
0.681094 0.171867 0.000000
0.735239 0.173300 0.000000
0.788624 0.174531 0.000000
0.841802 0.175533 0.000000
0.894593 0.176268 0.000000
0.947363 0.176721 0.000000
1.000000 0.176872 0.000000
0.000000 0.209652 0.000000
0.058313 0.209848 0.000000
0.116569 0.210428 0.000000
0.174531 0.211376 0.000000
0.232355 0.212662 0.000000
0.289767 0.214249 0.000000
0.347163 0.216086 0.000000
0.403431 0.218112 0.000000
0.459590 0.220277 0.000000
0.515307 0.222506 0.000000
0.570564 0.224736 0.000000
0.625336 0.226905 0.000000
0.679366 0.228930 0.000000
0.733706 0.230767 0.000000
0.787338 0.232355 0.000000
0.840801 0.233639 0.000000
0.893909 0.234589 0.000000
0.947016 0.235167 0.000000
1.000000 0.235365 0.000000
0.000000 0.262711 0.000000
0.057885 0.262941 0.000000
0.115723 0.263635 0.000000
0.173300 0.264761 0.000000
0.230767 0.266294 0.000000
0.287883 0.268179 0.000000
0.345014 0.270377 0.000000
0.401124 0.272795 0.000000
0.457161 0.275371 0.000000
0.512839 0.278039 0.000000
0.568140 0.280700 0.000000
0.623024 0.283266 0.000000
0.677224 0.285689 0.000000
0.731821 0.287883 0.000000
0.785751 0.289767 0.000000
0.839569 0.291302 0.000000
0.893065 0.292427 0.000000
0.946587 0.293123 0.000000
1.000000 0.293351 0.000000
0.000000 0.316582 0.000000
0.057387 0.316852 0.000000
0.114746 0.317626 0.000000
0.171867 0.318906 0.000000
0.228930 0.320634 0.000000
0.285689 0.322776 0.000000
0.342544 0.325242 0.000000
0.398440 0.327968 0.000000
0.454342 0.330886 0.000000
0.509979 0.333879 0.000000
0.565322 0.336889 0.000000
0.620337 0.339827 0.000000
0.674758 0.342544 0.000000
0.729623 0.345014 0.000000
0.783914 0.347163 0.000000
0.838136 0.348884 0.000000
0.892088 0.350166 0.000000
0.946089 0.350936 0.000000
1.000000 0.351209 0.000000
0.000000 0.370271 0.000000
0.056837 0.370552 0.000000
0.113669 0.371403 0.000000
0.170285 0.372784 0.000000
0.226905 0.374664 0.000000
0.283266 0.376976 0.000000
0.339827 0.379663 0.000000
0.395468 0.382629 0.000000
0.451241 0.385789 0.000000
0.506834 0.389055 0.000000
0.562218 0.392316 0.000000
0.617371 0.395468 0.000000
0.672032 0.398440 0.000000
0.727205 0.401124 0.000000
0.781888 0.403431 0.000000
0.836555 0.405313 0.000000
0.891010 0.406693 0.000000
0.945540 0.407544 0.000000
1.000000 0.407826 0.000000
0.000000 0.424830 0.000000
0.056253 0.425127 0.000000
0.112514 0.426017 0.000000
0.168606 0.427465 0.000000
0.224736 0.429436 0.000000
0.280700 0.431860 0.000000
0.336889 0.434678 0.000000
0.392316 0.437782 0.000000
0.447928 0.441091 0.000000
0.503468 0.444511 0.000000
0.558909 0.447928 0.000000
0.614211 0.451241 0.000000
0.669114 0.454342 0.000000
0.724629 0.457161 0.000000
0.779723 0.459590 0.000000
0.834873 0.461559 0.000000
0.889858 0.463006 0.000000
0.944955 0.463899 0.000000
1.000000 0.464193 0.000000
0.000000 0.480015 0.000000
0.055649 0.480324 0.000000
0.111328 0.481222 0.000000
0.166867 0.482696 0.000000
0.222506 0.484693 0.000000
0.278039 0.487161 0.000000
0.333879 0.490021 0.000000
0.389055 0.493166 0.000000
0.444511 0.496532 0.000000
0.500000 0.500000 0.000000
0.555489 0.503468 0.000000
0.610945 0.506834 0.000000
0.666121 0.509979 0.000000
0.721961 0.512839 0.000000
0.777494 0.515307 0.000000
0.833133 0.517304 0.000000
0.888672 0.518778 0.000000
0.944351 0.519676 0.000000
1.000000 0.519985 0.000000
0.000000 0.535807 0.000000
0.055045 0.536101 0.000000
0.110142 0.536994 0.000000
0.165127 0.538441 0.000000
0.220277 0.540410 0.000000
0.275371 0.542839 0.000000
0.330886 0.545658 0.000000
0.385789 0.548759 0.000000
0.441091 0.552072 0.000000
0.496532 0.555489 0.000000
0.552072 0.558909 0.000000
0.607684 0.562218 0.000000
0.663111 0.565322 0.000000
0.719300 0.568140 0.000000
0.775264 0.570564 0.000000
0.831394 0.572535 0.000000
0.887486 0.573983 0.000000
0.943746 0.574873 0.000000
1.000000 0.575170 0.000000
0.000000 0.592174 0.000000
0.054460 0.592456 0.000000
0.108990 0.593307 0.000000
0.163445 0.594687 0.000000
0.218112 0.596569 0.000000
0.272795 0.598876 0.000000
0.327968 0.601560 0.000000
0.382629 0.604532 0.000000
0.437782 0.607684 0.000000
0.493166 0.610945 0.000000
0.548759 0.614211 0.000000
0.604532 0.617371 0.000000
0.660173 0.620337 0.000000
0.716734 0.623024 0.000000
0.773095 0.625336 0.000000
0.829715 0.627216 0.000000
0.886331 0.628597 0.000000
0.943163 0.629448 0.000000
1.000000 0.629729 0.000000
0.000000 0.648791 0.000000
0.053911 0.649064 0.000000
0.107912 0.649834 0.000000
0.161864 0.651116 0.000000
0.216086 0.652837 0.000000
0.270377 0.654986 0.000000
0.325242 0.657456 0.000000
0.379663 0.660173 0.000000
0.434678 0.663111 0.000000
0.490021 0.666121 0.000000
0.545658 0.669114 0.000000
0.601560 0.672032 0.000000
0.657456 0.674758 0.000000
0.714311 0.677224 0.000000
0.771070 0.679366 0.000000
0.828133 0.681094 0.000000
0.885254 0.682374 0.000000
0.942613 0.683148 0.000000
1.000000 0.683418 0.000000
0.000000 0.706649 0.000000
0.053412 0.706877 0.000000
0.106935 0.707573 0.000000
0.160431 0.708698 0.000000
0.214249 0.710233 0.000000
0.268179 0.712117 0.000000
0.322776 0.714311 0.000000
0.376976 0.716734 0.000000
0.431860 0.719300 0.000000
0.487161 0.721961 0.000000
0.542839 0.724629 0.000000
0.598876 0.727205 0.000000
0.654986 0.729623 0.000000
0.712117 0.731821 0.000000
0.769233 0.733706 0.000000
0.826700 0.735239 0.000000
0.884277 0.736365 0.000000
0.942115 0.737059 0.000000
1.000000 0.737289 0.000000
0.000000 0.764635 0.000000
0.052984 0.764833 0.000000
0.106091 0.765411 0.000000
0.159199 0.766361 0.000000
0.212662 0.767645 0.000000
0.266294 0.769233 0.000000
0.320634 0.771070 0.000000
0.374664 0.773095 0.000000
0.429436 0.775264 0.000000
0.484693 0.777494 0.000000
0.540410 0.779723 0.000000
0.596569 0.781888 0.000000
0.652837 0.783914 0.000000
0.710233 0.785751 0.000000
0.767645 0.787338 0.000000
0.825469 0.788624 0.000000
0.883431 0.789572 0.000000
0.941687 0.790152 0.000000
1.000000 0.790348 0.000000
0.000000 0.823128 0.000000
0.052636 0.823279 0.000000
0.105407 0.823732 0.000000
0.158198 0.824467 0.000000
0.211376 0.825469 0.000000
0.264761 0.826700 0.000000
0.318906 0.828133 0.000000
0.372784 0.829715 0.000000
0.427465 0.831394 0.000000
0.482696 0.833133 0.000000
0.538441 0.834873 0.000000
0.594687 0.836555 0.000000
0.651116 0.838136 0.000000
0.708698 0.839569 0.000000
0.766361 0.840801 0.000000
0.824467 0.841802 0.000000
0.882749 0.842538 0.000000
0.941339 0.842990 0.000000
1.000000 0.843142 0.000000
0.000000 0.881830 0.000000
0.052380 0.881936 0.000000
0.104902 0.882243 0.000000
0.157462 0.882749 0.000000
0.210428 0.883431 0.000000
0.263635 0.884277 0.000000
0.317626 0.885254 0.000000
0.371403 0.886331 0.000000
0.426017 0.887486 0.000000
0.481222 0.888672 0.000000
0.536994 0.889858 0.000000
0.593307 0.891010 0.000000
0.649834 0.892088 0.000000
0.707573 0.893065 0.000000
0.765411 0.893909 0.000000
0.823732 0.894593 0.000000
0.882243 0.895098 0.000000
0.941083 0.895406 0.000000
1.000000 0.895510 0.000000
0.000000 0.940873 0.000000
0.052223 0.940926 0.000000
0.104594 0.941083 0.000000
0.157010 0.941339 0.000000
0.209848 0.941687 0.000000
0.262941 0.942115 0.000000
0.316852 0.942613 0.000000
0.370552 0.943163 0.000000
0.425127 0.943746 0.000000
0.480324 0.944351 0.000000
0.536101 0.944955 0.000000
0.592456 0.945540 0.000000
0.649064 0.946089 0.000000
0.706877 0.946587 0.000000
0.764833 0.947016 0.000000
0.823279 0.947363 0.000000
0.881936 0.947620 0.000000
0.940926 0.947776 0.000000
1.000000 0.947830 0.000000
0.000000 1.000000 0.000000
0.052170 1.000000 0.000000
0.104490 1.000000 0.000000
0.156858 1.000000 0.000000
0.209652 1.000000 0.000000
0.262711 1.000000 0.000000
0.316582 1.000000 0.000000
0.370271 1.000000 0.000000
0.424830 1.000000 0.000000
0.480015 1.000000 0.000000
0.535807 1.000000 0.000000
0.592174 1.000000 0.000000
0.648791 1.000000 0.000000
0.706649 1.000000 0.000000
0.764635 1.000000 0.000000
0.823128 1.000000 0.000000
0.881830 1.000000 0.000000
0.940873 1.000000 0.000000
1.000000 1.000000 0.000000
0.000000 0.000000 0.055000
0.059126 0.000000 0.055000
0.118170 0.000000 0.055000
0.176872 0.000000 0.055000
0.235365 0.000000 0.055000
0.293351 0.000000 0.055000
0.351209 0.000000 0.055000
0.407826 0.000000 0.055000
0.464193 0.000000 0.055000
0.519985 0.000000 0.055000
0.575170 0.000000 0.055000
0.629729 0.000000 0.055000
0.683418 0.000000 0.055000
0.737289 0.000000 0.055000
0.790348 0.000000 0.055000
0.843142 0.000000 0.055000
0.895510 0.000000 0.055000
0.947830 0.000000 0.055000
1.000000 0.000000 0.055000
0.000000 0.052170 0.055000
0.059074 0.052223 0.055000
0.118064 0.052380 0.055000
0.176721 0.052636 0.055000
0.235167 0.052984 0.055000
0.293123 0.053412 0.055000
0.350936 0.053911 0.055000
0.407544 0.054460 0.055000
0.463899 0.055045 0.055000
0.519676 0.055649 0.055000
0.574873 0.056253 0.055000
0.629448 0.056837 0.055000
0.683148 0.057387 0.055000
0.737059 0.057885 0.055000
0.790152 0.058313 0.055000
0.842990 0.058661 0.055000
0.895406 0.058917 0.055000
0.947776 0.059074 0.055000
1.000000 0.059126 0.055000
0.000000 0.104490 0.055000
0.058917 0.104594 0.055000
0.117757 0.104902 0.055000
0.176268 0.105407 0.055000
0.234589 0.106091 0.055000
0.292427 0.106935 0.055000
0.350166 0.107912 0.055000
0.406693 0.108990 0.055000
0.463006 0.110142 0.055000
0.518778 0.111328 0.055000
0.573983 0.112514 0.055000
0.628597 0.113669 0.055000
0.682374 0.114746 0.055000
0.736365 0.115723 0.055000
0.789572 0.116569 0.055000
0.842538 0.117251 0.055000
0.895098 0.117757 0.055000
0.947620 0.118064 0.055000
1.000000 0.118170 0.055000
0.000000 0.156858 0.055000
0.058661 0.157010 0.055000
0.117251 0.157462 0.055000
0.175533 0.158198 0.055000
0.233639 0.159199 0.055000
0.291302 0.160431 0.055000
0.348884 0.161864 0.055000
0.405313 0.163445 0.055000
0.461559 0.165127 0.055000
0.517304 0.166867 0.055000
0.572535 0.168606 0.055000
0.627216 0.170285 0.055000
0.681094 0.171867 0.055000
0.735239 0.173300 0.055000
0.788624 0.174531 0.055000
0.841802 0.175533 0.055000
0.894593 0.176268 0.055000
0.947363 0.176721 0.055000
1.000000 0.176872 0.055000
0.000000 0.209652 0.055000
0.058313 0.209848 0.055000
0.116569 0.210428 0.055000
0.174531 0.211376 0.055000
0.232355 0.212662 0.055000
0.289767 0.214249 0.055000
0.347163 0.216086 0.055000
0.403431 0.218112 0.055000
0.459590 0.220277 0.055000
0.515307 0.222506 0.055000
0.570564 0.224736 0.055000
0.625336 0.226905 0.055000
0.679366 0.228930 0.055000
0.733706 0.230767 0.055000
0.787338 0.232355 0.055000
0.840801 0.233639 0.055000
0.893909 0.234589 0.055000
0.947016 0.235167 0.055000
1.000000 0.235365 0.055000
0.000000 0.262711 0.055000
0.057885 0.262941 0.055000
0.115723 0.263635 0.055000
0.173300 0.264761 0.055000
0.230767 0.266294 0.055000
0.287883 0.268179 0.055000
0.345014 0.270377 0.055000
0.401124 0.272795 0.055000
0.457161 0.275371 0.055000
0.512839 0.278039 0.055000
0.568140 0.280700 0.055000
0.623024 0.283266 0.055000
0.677224 0.285689 0.055000
0.731821 0.287883 0.055000
0.785751 0.289767 0.055000
0.839569 0.291302 0.055000
0.893065 0.292427 0.055000
0.946587 0.293123 0.055000
1.000000 0.293351 0.055000
0.000000 0.316582 0.055000
0.057387 0.316852 0.055000
0.114746 0.317626 0.055000
0.171867 0.318906 0.055000
0.228930 0.320634 0.055000
0.285689 0.322776 0.055000
0.342544 0.325242 0.055000
0.398440 0.327968 0.055000
0.454342 0.330886 0.055000
0.509979 0.333879 0.055000
0.565322 0.336889 0.055000
0.620337 0.339827 0.055000
0.674758 0.342544 0.055000
0.729623 0.345014 0.055000
0.783914 0.347163 0.055000
0.838136 0.348884 0.055000
0.892088 0.350166 0.055000
0.946089 0.350936 0.055000
1.000000 0.351209 0.055000
0.000000 0.370271 0.055000
0.056837 0.370552 0.055000
0.113669 0.371403 0.055000
0.170285 0.372784 0.055000
0.226905 0.374664 0.055000
0.283266 0.376976 0.055000
0.339827 0.379663 0.055000
0.395468 0.382629 0.055000
0.451241 0.385789 0.055000
0.506834 0.389055 0.055000
0.562218 0.392316 0.055000
0.617371 0.395468 0.055000
0.672032 0.398440 0.055000
0.727205 0.401124 0.055000
0.781888 0.403431 0.055000
0.836555 0.405313 0.055000
0.891010 0.406693 0.055000
0.945540 0.407544 0.055000
1.000000 0.407826 0.055000
0.000000 0.424830 0.055000
0.056253 0.425127 0.055000
0.112514 0.426017 0.055000
0.168606 0.427465 0.055000
0.224736 0.429436 0.055000
0.280700 0.431860 0.055000
0.336889 0.434678 0.055000
0.392316 0.437782 0.055000
0.447928 0.441091 0.055000
0.503468 0.444511 0.055000
0.558909 0.447928 0.055000
0.614211 0.451241 0.055000
0.669114 0.454342 0.055000
0.724629 0.457161 0.055000
0.779723 0.459590 0.055000
0.834873 0.461559 0.055000
0.889858 0.463006 0.055000
0.944955 0.463899 0.055000
1.000000 0.464193 0.055000
0.000000 0.480015 0.055000
0.055649 0.480324 0.055000
0.111328 0.481222 0.055000
0.166867 0.482696 0.055000
0.222506 0.484693 0.055000
0.278039 0.487161 0.055000
0.333879 0.490021 0.055000
0.389055 0.493166 0.055000
0.444511 0.496532 0.055000
0.500000 0.500000 0.055000
0.555489 0.503468 0.055000
0.610945 0.506834 0.055000
0.666121 0.509979 0.055000
0.721961 0.512839 0.055000
0.777494 0.515307 0.055000
0.833133 0.517304 0.055000
0.888672 0.518778 0.055000
0.944351 0.519676 0.055000
1.000000 0.519985 0.055000
0.000000 0.535807 0.055000
0.055045 0.536101 0.055000
0.110142 0.536994 0.055000
0.165127 0.538441 0.055000
0.220277 0.540410 0.055000
0.275371 0.542839 0.055000
0.330886 0.545658 0.055000
0.385789 0.548759 0.055000
0.441091 0.552072 0.055000
0.496532 0.555489 0.055000
0.552072 0.558909 0.055000
0.607684 0.562218 0.055000
0.663111 0.565322 0.055000
0.719300 0.568140 0.055000
0.775264 0.570564 0.055000
0.831394 0.572535 0.055000
0.887486 0.573983 0.055000
0.943746 0.574873 0.055000
1.000000 0.575170 0.055000
0.000000 0.592174 0.055000
0.054460 0.592456 0.055000
0.108990 0.593307 0.055000
0.163445 0.594687 0.055000
0.218112 0.596569 0.055000
0.272795 0.598876 0.055000
0.327968 0.601560 0.055000
0.382629 0.604532 0.055000
0.437782 0.607684 0.055000
0.493166 0.610945 0.055000
0.548759 0.614211 0.055000
0.604532 0.617371 0.055000
0.660173 0.620337 0.055000
0.716734 0.623024 0.055000
0.773095 0.625336 0.055000
0.829715 0.627216 0.055000
0.886331 0.628597 0.055000
0.943163 0.629448 0.055000
1.000000 0.629729 0.055000
0.000000 0.648791 0.055000
0.053911 0.649064 0.055000
0.107912 0.649834 0.055000
0.161864 0.651116 0.055000
0.216086 0.652837 0.055000
0.270377 0.654986 0.055000
0.325242 0.657456 0.055000
0.379663 0.660173 0.055000
0.434678 0.663111 0.055000
0.490021 0.666121 0.055000
0.545658 0.669114 0.055000
0.601560 0.672032 0.055000
0.657456 0.674758 0.055000
0.714311 0.677224 0.055000
0.771070 0.679366 0.055000
0.828133 0.681094 0.055000
0.885254 0.682374 0.055000
0.942613 0.683148 0.055000
1.000000 0.683418 0.055000
0.000000 0.706649 0.055000
0.053412 0.706877 0.055000
0.106935 0.707573 0.055000
0.160431 0.708698 0.055000
0.214249 0.710233 0.055000
0.268179 0.712117 0.055000
0.322776 0.714311 0.055000
0.376976 0.716734 0.055000
0.431860 0.719300 0.055000
0.487161 0.721961 0.055000
0.542839 0.724629 0.055000
0.598876 0.727205 0.055000
0.654986 0.729623 0.055000
0.712117 0.731821 0.055000
0.769233 0.733706 0.055000
0.826700 0.735239 0.055000
0.884277 0.736365 0.055000
0.942115 0.737059 0.055000
1.000000 0.737289 0.055000
0.000000 0.764635 0.055000
0.052984 0.764833 0.055000
0.106091 0.765411 0.055000
0.159199 0.766361 0.055000
0.212662 0.767645 0.055000
0.266294 0.769233 0.055000
0.320634 0.771070 0.055000
0.374664 0.773095 0.055000
0.429436 0.775264 0.055000
0.484693 0.777494 0.055000
0.540410 0.779723 0.055000
0.596569 0.781888 0.055000
0.652837 0.783914 0.055000
0.710233 0.785751 0.055000
0.767645 0.787338 0.055000
0.825469 0.788624 0.055000
0.883431 0.789572 0.055000
0.941687 0.790152 0.055000
1.000000 0.790348 0.055000
0.000000 0.823128 0.055000
0.052636 0.823279 0.055000
0.105407 0.823732 0.055000
0.158198 0.824467 0.055000
0.211376 0.825469 0.055000
0.264761 0.826700 0.055000
0.318906 0.828133 0.055000
0.372784 0.829715 0.055000
0.427465 0.831394 0.055000
0.482696 0.833133 0.055000
0.538441 0.834873 0.055000
0.594687 0.836555 0.055000
0.651116 0.838136 0.055000
0.708698 0.839569 0.055000
0.766361 0.840801 0.055000
0.824467 0.841802 0.055000
0.882749 0.842538 0.055000
0.941339 0.842990 0.055000
1.000000 0.843142 0.055000
0.000000 0.881830 0.055000
0.052380 0.881936 0.055000
0.104902 0.882243 0.055000
0.157462 0.882749 0.055000
0.210428 0.883431 0.055000
0.263635 0.884277 0.055000
0.317626 0.885254 0.055000
0.371403 0.886331 0.055000
0.426017 0.887486 0.055000
0.481222 0.888672 0.055000
0.536994 0.889858 0.055000
0.593307 0.891010 0.055000
0.649834 0.892088 0.055000
0.707573 0.893065 0.055000
0.765411 0.893909 0.055000
0.823732 0.894593 0.055000
0.882243 0.895098 0.055000
0.941083 0.895406 0.055000
1.000000 0.895510 0.055000
0.000000 0.940873 0.055000
0.052223 0.940926 0.055000
0.104594 0.941083 0.055000
0.157010 0.941339 0.055000
0.209848 0.941687 0.055000
0.262941 0.942115 0.055000
0.316852 0.942613 0.055000
0.370552 0.943163 0.055000
0.425127 0.943746 0.055000
0.480324 0.944351 0.055000
0.536101 0.944955 0.055000
0.592456 0.945540 0.055000
0.649064 0.946089 0.055000
0.706877 0.946587 0.055000
0.764833 0.947016 0.055000
0.823279 0.947363 0.055000
0.881936 0.947620 0.055000
0.940926 0.947776 0.055000
1.000000 0.947830 0.055000
0.000000 1.000000 0.055000
0.052170 1.000000 0.055000
0.104490 1.000000 0.055000
0.156858 1.000000 0.055000
0.209652 1.000000 0.055000
0.262711 1.000000 0.055000
0.316582 1.000000 0.055000
0.370271 1.000000 0.055000
0.424830 1.000000 0.055000
0.480015 1.000000 0.055000
0.535807 1.000000 0.055000
0.592174 1.000000 0.055000
0.648791 1.000000 0.055000
0.706649 1.000000 0.055000
0.764635 1.000000 0.055000
0.823128 1.000000 0.055000
0.881830 1.000000 0.055000
0.940873 1.000000 0.055000
1.000000 1.000000 0.055000
0.000000 0.000000 0.110000
0.059126 0.000000 0.110000
0.118170 0.000000 0.110000
0.176872 0.000000 0.110000
0.235365 0.000000 0.110000
0.293351 0.000000 0.110000
0.351209 0.000000 0.110000
0.407826 0.000000 0.110000
0.464193 0.000000 0.110000
0.519985 0.000000 0.110000
0.575170 0.000000 0.110000
0.629729 0.000000 0.110000
0.683418 0.000000 0.110000
0.737289 0.000000 0.110000
0.790348 0.000000 0.110000
0.843142 0.000000 0.110000
0.895510 0.000000 0.110000