# vtk DataFile Version 2.0
Mesh for Fierro
ASCII 
DATASET UNSTRUCTURED_GRID

POINTS 2527 float
0.000000 0.000000 0.000000
0.406335 0.000000 0.000000
0.658408 0.000000 0.000000
0.747677 0.000000 0.000000
0.817280 0.000000 0.000000
0.854846 0.000000 0.000000
0.880976 0.000000 0.000000
0.900475 0.000000 0.000000
0.916796 0.000000 0.000000
0.929406 0.000000 0.000000
0.940056 0.000000 0.000000
0.949355 0.000000 0.000000
0.957324 0.000000 0.000000
0.964484 0.000000 0.000000
0.971348 0.000000 0.000000
0.978303 0.000000 0.000000
0.985358 0.000000 0.000000
0.992630 0.000000 0.000000
1.000000 0.000000 0.000000
0.000000 0.007351 0.000000
0.405491 0.008219 0.000000
0.651690 0.023242 0.000000
0.743723 0.038689 0.000000
0.813662 0.061823 0.000000
0.850698 0.098364 0.000000
0.876416 0.134786 0.000000
0.895142 0.169350 0.000000
0.910288 0.205089 0.000000
0.922223 0.242320 0.000000
0.932658 0.274747 0.000000
0.942027 0.307955 0.000000
0.950266 0.338758 0.000000
0.958591 0.360640 0.000000
0.966692 0.378556 0.000000
0.975095 0.391507 0.000000
0.983449 0.398593 0.000000
0.991781 0.405544 0.000000
1.000000 0.406211 0.000000
0.000000 0.014625 0.000000
0.398536 0.016532 0.000000
0.639845 0.044332 0.000000
0.737937 0.074927 0.000000
0.803202 0.118006 0.000000
0.837469 0.178385 0.000000
0.859738 0.242011 0.000000
0.876291 0.297709 0.000000
0.886920 0.354948 0.000000
0.893432 0.408614 0.000000
0.897513 0.457176 0.000000
0.900486 0.500731 0.000000
0.904202 0.539765 0.000000
0.912377 0.571269 0.000000
0.922915 0.599277 0.000000
0.937700 0.622089 0.000000
0.955695 0.639748 0.000000
0.976779 0.651689 0.000000
1.000000 0.658479 0.000000
0.000000 0.021694 0.000000
0.391500 0.024881 0.000000
0.622089 0.062305 0.000000
0.723845 0.105676 0.000000
0.783346 0.166151 0.000000
0.813811 0.237320 0.000000
0.827936 0.315759 0.000000
0.839647 0.376910 0.000000
0.838775 0.445723 0.000000
0.836976 0.503122 0.000000
0.832919 0.558062 0.000000
0.833621 0.605261 0.000000
0.836476 0.648272 0.000000
0.849933 0.679693 0.000000
0.867815 0.706573 0.000000
0.894315 0.723854 0.000000
0.925078 0.737922 0.000000
0.961284 0.743710 0.000000
1.000000 0.747681 0.000000
0.000000 0.028677 0.000000
0.378619 0.033293 0.000000
0.599302 0.077136 0.000000
0.706588 0.132181 0.000000
0.757989 0.205031 0.000000
0.785761 0.284306 0.000000
0.789329 0.371023 0.000000
0.796290 0.437501 0.000000
0.782437 0.508602 0.000000
0.773820 0.564303 0.000000
0.764089 0.613939 0.000000
0.761826 0.655203 0.000000
0.758180 0.693089 0.000000
0.772672 0.726651 0.000000
0.794939 0.758008 0.000000
0.833871 0.783318 0.000000
0.881991 0.803230 0.000000
0.938207 0.813690 0.000000
1.000000 0.817358 0.000000
0.000000 0.035603 0.000000
0.360560 0.041409 0.000000
0.571205 0.087637 0.000000
0.679662 0.150050 0.000000
0.726671 0.227305 0.000000
0.751445 0.309461 0.000000
0.747978 0.394415 0.000000
0.748569 0.463070 0.000000
0.725086 0.526494 0.000000
0.708930 0.580234 0.000000
0.690779 0.628742 0.000000
0.682736 0.672034 0.000000
0.675117 0.713082 0.000000
0.690521 0.751445 0.000000
0.715710 0.785732 0.000000
0.762675 0.813841 0.000000
0.821617 0.837463 0.000000
0.901591 0.850655 0.000000
1.000000 0.854789 0.000000
0.000000 0.042806 0.000000
0.338826 0.049752 0.000000
0.539774 0.095840 0.000000
0.648308 0.163534 0.000000
0.693090 0.241859 0.000000
0.713079 0.324792 0.000000
0.706027 0.407321 0.000000
0.696849 0.475771 0.000000
0.664188 0.532184 0.000000
0.643485 0.583572 0.000000
0.617597 0.627521 0.000000
0.607424 0.668556 0.000000
0.592704 0.706039 0.000000
0.605554 0.748021 0.000000
0.629050 0.789388 0.000000
0.684285 0.827978 0.000000
0.757914 0.859747 0.000000
0.865136 0.876324 0.000000
1.000000 0.880822 0.000000
0.000000 0.050754 0.000000
0.307880 0.057983 0.000000
0.500632 0.099500 0.000000
0.605300 0.166376 0.000000
0.655170 0.238185 0.000000
0.672017 0.317269 0.000000
0.668547 0.392599 0.000000
0.654330 0.457724 0.000000
0.621823 0.509527 0.000000
0.592625 0.561570 0.000000
0.562136 0.607510 0.000000
0.542257 0.654312 0.000000
0.524217 0.696813 0.000000
0.536920 0.748560 0.000000
0.562473 0.796291 0.000000
0.623136 0.839629 0.000000
0.702355 0.876371 0.000000
0.830680 0.895152 0.000000
1.000000 0.900340 0.000000
0.000000 0.060102 0.000000
0.274701 0.067352 0.000000
0.457195 0.102509 0.000000
0.558081 0.167083 0.000000
0.613915 0.235863 0.000000
0.628724 0.309207 0.000000
0.627533 0.382346 0.000000
0.607527 0.437866 0.000000
0.577139 0.485151 0.000000
0.546177 0.532944 0.000000
0.514849 0.577170 0.000000
0.490451 0.621815 0.000000
0.467736 0.664170 0.000000
0.473548 0.725099 0.000000
0.491361 0.782474 0.000000
0.554268 0.838775 0.000000
0.644801 0.886912 0.000000
0.794762 0.910177 0.000000
1.000000 0.916404 0.000000
0.000000 0.070691 0.000000
0.242421 0.077809 0.000000
0.408545 0.106522 0.000000
0.503137 0.163004 0.000000
0.564345 0.226261 0.000000
0.580213 0.291038 0.000000
0.583607 0.356595 0.000000
0.561558 0.407418 0.000000
0.532916 0.453821 0.000000
0.499994 0.500026 0.000000
0.467041 0.546194 0.000000
0.438431 0.592606 0.000000
0.416450 0.643453 0.000000
0.419791 0.708972 0.000000
0.435639 0.773760 0.000000
0.496792 0.836938 0.000000
0.591356 0.893475 0.000000
0.757425 0.922217 0.000000
1.000000 0.929109 0.000000
0.000000 0.083238 0.000000
0.205260 0.089721 0.000000
0.355141 0.113135 0.000000
0.445752 0.161217 0.000000
0.508577 0.217506 0.000000
0.526492 0.274914 0.000000
0.532261 0.335826 0.000000
0.509542 0.378162 0.000000
0.485120 0.422853 0.000000
0.453840 0.467067 0.000000
0.422844 0.514855 0.000000
0.392463 0.562163 0.000000
0.372448 0.617599 0.000000
0.371320 0.690805 0.000000
0.386015 0.764161 0.000000
0.442008 0.832973 0.000000
0.542704 0.897531 0.000000
0.725150 0.932689 0.000000
1.000000 0.939806 0.000000
0.000000 0.099517 0.000000
0.169354 0.104861 0.000000
0.297760 0.123692 0.000000
0.376922 0.160371 0.000000
0.437513 0.203713 0.000000
0.463041 0.251421 0.000000
0.475774 0.303161 0.000000
0.457767 0.345665 0.000000
0.437843 0.392479 0.000000
0.407395 0.438440 0.000000
0.378195 0.490463 0.000000
0.345669 0.542264 0.000000
0.331458 0.607432 0.000000
0.327984 0.682708 0.000000
0.344806 0.761844 0.000000
0.394715 0.833641 0.000000
0.499413 0.900635 0.000000
0.692229 0.942024 0.000000
1.000000 0.949057 0.000000
0.000000 0.119063 0.000000
0.134764 0.123558 0.000000
0.241913 0.140177 0.000000
0.315805 0.172015 0.000000
0.371024 0.210661 0.000000
0.394438 0.252063 0.000000
0.407239 0.294006 0.000000
0.392588 0.331493 0.000000
0.382394 0.372455 0.000000
0.356563 0.416434 0.000000
0.335832 0.467744 0.000000
0.303164 0.524225 0.000000
0.294000 0.592727 0.000000
0.286880 0.675104 0.000000
0.306974 0.758219 0.000000
0.351684 0.836496 0.000000
0.460270 0.904219 0.000000
0.661317 0.950277 0.000000
1.000000 0.957016 0.000000
0.000000 0.145144 0.000000
0.098459 0.149286 0.000000
0.178379 0.162577 0.000000
0.237369 0.186126 0.000000
0.284255 0.214208 0.000000
0.309447 0.248496 0.000000
0.324882 0.286896 0.000000
0.317289 0.327976 0.000000
0.309193 0.371320 0.000000
0.291022 0.419791 0.000000
0.274903 0.473506 0.000000
0.251427 0.536930 0.000000
0.252055 0.605562 0.000000
0.248507 0.690536 0.000000
0.273443 0.772694 0.000000
0.320242 0.849970 0.000000
0.428897 0.912385 0.000000
0.639271 0.958667 0.000000
1.000000 0.964281 0.000000
0.000000 0.182621 0.000000
0.061798 0.186282 0.000000
0.117971 0.196761 0.000000
0.166176 0.216714 0.000000
0.205079 0.242090 0.000000
0.227341 0.273447 0.000000
0.241816 0.306971 0.000000
0.238120 0.344826 0.000000
0.235855 0.386020 0.000000
0.226225 0.435623 0.000000
0.217560 0.491351 0.000000
0.203719 0.562496 0.000000
0.210669 0.628984 0.000000
0.214226 0.715732 0.000000
0.242097 0.794906 0.000000
0.293329 0.867852 0.000000
0.400871 0.922897 0.000000
0.621200 0.966796 0.000000
1.000000 0.971186 0.000000
0.000000 0.252303 0.000000
0.038705 0.256316 0.000000
0.074884 0.262152 0.000000
0.105641 0.276078 0.000000
0.132150 0.293341 0.000000
0.150028 0.320246 0.000000
0.163462 0.351724 0.000000
0.166354 0.394724 0.000000
0.167038 0.441993 0.000000
0.163102 0.496746 0.000000
0.161229 0.554302 0.000000
0.160366 0.623117 0.000000
0.172032 0.684215 0.000000
0.186132 0.762663 0.000000
0.216712 0.833811 0.000000
0.276091 0.894368 0.000000
0.377990 0.937616 0.000000
0.607831 0.975148 0.000000
1.000000 0.978196 0.000000
0.000000 0.341745 0.000000
0.023243 0.348230 0.000000
0.044384 0.360148 0.000000
0.062395 0.378007 0.000000
0.077138 0.400854 0.000000
0.087642 0.428902 0.000000
0.095816 0.460274 0.000000
0.099396 0.499416 0.000000
0.102519 0.542637 0.000000
0.106554 0.591355 0.000000
0.113100 0.644793 0.000000
0.123643 0.702365 0.000000
0.140237 0.757908 0.000000
0.162545 0.821603 0.000000
0.196743 0.882018 0.000000
0.262150 0.925100 0.000000
0.360166 0.955637 0.000000
0.600830 0.983480 0.000000
1.000000 0.985243 0.000000
0.000000 0.593617 0.000000
0.008241 0.594191 0.000000
0.016532 0.600791 0.000000
0.024849 0.607819 0.000000
0.033190 0.621104 0.000000
0.041304 0.639097 0.000000
0.049728 0.661064 0.000000
0.058001 0.692090 0.000000
0.067347 0.724997 0.000000
0.077776 0.757422 0.000000
0.089817 0.794696 0.000000
0.104836 0.830680 0.000000
0.123643 0.865071 0.000000
0.149322 0.901550 0.000000
0.186298 0.938203 0.000000
0.256298 0.961274 0.000000
0.348195 0.976768 0.000000
0.594279 0.991759 0.000000
1.000000 0.992447 0.000000
0.000000 1.000000 0.000000
0.007575 1.000000 0.000000
0.014843 1.000000 0.000000
0.021850 1.000000 0.000000
0.028833 1.000000 0.000000
0.035702 1.000000 0.000000
0.043032 1.000000 0.000000
0.050993 1.000000 0.000000
0.060215 1.000000 0.000000
0.070910 1.000000 0.000000
0.083601 1.000000 0.000000
0.099736 1.000000 0.000000
0.119162 1.000000 0.000000
0.145204 1.000000 0.000000
0.182636 1.000000 0.000000
0.252280 1.000000 0.000000
0.341699 1.000000 0.000000
0.593687 1.000000 0.000000
1.000000 1.000000 0.000000
0.000000 0.000000 0.055182
0.406525 0.000000 0.055051
0.658134 0.000000 0.055032
0.747625 0.000000 0.055015
0.817342 0.000000 0.054977
[...]
POINT_DATA 2527 
VECTORS pos float 
0.000000 0.000000 0.000000
0.406335 0.000000 0.000000
0.658408 0.000000 0.000000
0.747677 0.000000 0.000000
0.817280 0.000000 0.000000
0.854846 0.000000 0.000000
0.880976 0.000000 0.000000
0.900475 0.000000 0.000000
0.916796 0.000000 0.000000
0.929406 0.000000 0.000000
0.940056 0.000000 0.000000
0.949355 0.000000 0.000000
0.957324 0.000000 0.000000
0.964484 0.000000 0.000000
0.971348 0.000000 0.000000
0.978303 0.000000 0.000000
0.985358 0.000000 0.000000
0.992630 0.000000 0.000000
1.000000 0.000000 0.000000
0.000000 0.007351 0.000000
0.405491 0.008219 0.000000
0.651690 0.023242 0.000000
0.743723 0.038689 0.000000
0.813662 0.061823 0.000000
0.850698 0.098364 0.000000
0.876416 0.134786 0.000000
0.895142 0.169350 0.000000
0.910288 0.205089 0.000000
0.922223 0.242320 0.000000
0.932658 0.274747 0.000000
0.942027 0.307955 0.000000
0.950266 0.338758 0.000000
0.958591 0.360640 0.000000
0.966692 0.378556 0.000000
0.975095 0.391507 0.000000
0.983449 0.398593 0.000000
0.991781 0.405544 0.000000
1.000000 0.406211 0.000000
0.000000 0.014625 0.000000
0.398536 0.016532 0.000000
0.639845 0.044332 0.000000
0.737937 0.074927 0.000000
0.803202 0.118006 0.000000
0.837469 0.178385 0.000000
0.859738 0.242011 0.000000
0.876291 0.297709 0.000000
0.886920 0.354948 0.000000
0.893432 0.408614 0.000000
0.897513 0.457176 0.000000
0.900486 0.500731 0.000000
0.904202 0.539765 0.000000
0.912377 0.571269 0.000000
0.922915 0.599277 0.000000
0.937700 0.622089 0.000000
0.955695 0.639748 0.000000
0.976779 0.651689 0.000000
1.000000 0.658479 0.000000
0.000000 0.021694 0.000000
0.391500 0.024881 0.000000
0.622089 0.062305 0.000000
0.723845 0.105676 0.000000
0.783346 0.166151 0.000000
0.813811 0.237320 0.000000
0.827936 0.315759 0.000000
0.839647 0.376910 0.000000
0.838775 0.445723 0.000000
0.836976 0.503122 0.000000
0.832919 0.558062 0.000000
0.833621 0.605261 0.000000
0.836476 0.648272 0.000000
0.849933 0.679693 0.000000
0.867815 0.706573 0.000000
0.894315 0.723854 0.000000
0.925078 0.737922 0.000000
0.961284 0.743710 0.000000
1.000000 0.747681 0.000000
0.000000 0.028677 0.000000
0.378619 0.033293 0.000000
0.599302 0.077136 0.000000
0.706588 0.132181 0.000000
0.757989 0.205031 0.000000
0.785761 0.284306 0.000000
0.789329 0.371023 0.000000
0.796290 0.437501 0.000000
0.782437 0.508602 0.000000
0.773820 0.564303 0.000000
0.764089 0.613939 0.000000
0.761826 0.655203 0.000000
0.758180 0.693089 0.000000
0.772672 0.726651 0.000000
0.794939 0.758008 0.000000
0.833871 0.783318 0.000000
0.881991 0.803230 0.000000
0.938207 0.813690 0.000000
1.000000 0.817358 0.000000
0.000000 0.035603 0.000000
0.360560 0.041409 0.000000
0.571205 0.087637 0.000000
0.679662 0.150050 0.000000
0.726671 0.227305 0.000000
0.751445 0.309461 0.000000
0.747978 0.394415 0.000000
0.748569 0.463070 0.000000
0.725086 0.526494 0.000000
0.708930 0.580234 0.000000
0.690779 0.628742 0.000000
0.682736 0.672034 0.000000
0.675117 0.713082 0.000000
0.690521 0.751445 0.000000
0.715710 0.785732 0.000000
0.762675 0.813841 0.000000
0.821617 0.837463 0.000000
0.901591 0.850655 0.000000
1.000000 0.854789 0.000000
0.000000 0.042806 0.000000
0.338826 0.049752 0.000000
0.539774 0.095840 0.000000
0.648308 0.163534 0.000000
0.693090 0.241859 0.000000
0.713079 0.324792 0.000000
0.706027 0.407321 0.000000
0.696849 0.475771 0.000000
0.664188 0.532184 0.000000
0.643485 0.583572 0.000000
0.617597 0.627521 0.000000
0.607424 0.668556 0.000000
0.592704 0.706039 0.000000
0.605554 0.748021 0.000000
0.629050 0.789388 0.000000
0.684285 0.827978 0.000000
0.757914 0.859747 0.000000
0.865136 0.876324 0.000000
1.000000 0.880822 0.000000
0.000000 0.050754 0.000000
0.307880 0.057983 0.000000
0.500632 0.099500 0.000000
0.605300 0.166376 0.000000
0.655170 0.238185 0.000000
0.672017 0.317269 0.000000
0.668547 0.392599 0.000000
0.654330 0.457724 0.000000
0.621823 0.509527 0.000000
0.592625 0.561570 0.000000
0.562136 0.607510 0.000000
0.542257 0.654312 0.000000
0.524217 0.696813 0.000000
0.536920 0.748560 0.000000
0.562473 0.796291 0.000000
0.623136 0.839629 0.000000
0.702355 0.876371 0.000000
0.830680 0.895152 0.000000
1.000000 0.900340 0.000000
0.000000 0.060102 0.000000
0.274701 0.067352 0.000000
0.457195 0.102509 0.000000
0.558081 0.167083 0.000000
0.613915 0.235863 0.000000
0.628724 0.309207 0.000000
0.627533 0.382346 0.000000
0.607527 0.437866 0.000000
0.577139 0.485151 0.000000
0.546177 0.532944 0.000000
0.514849 0.577170 0.000000
0.490451 0.621815 0.000000
0.467736 0.664170 0.000000
0.473548 0.725099 0.000000
0.491361 0.782474 0.000000
0.554268 0.838775 0.000000
0.644801 0.886912 0.000000
0.794762 0.910177 0.000000
1.000000 0.916404 0.000000
0.000000 0.070691 0.000000
0.242421 0.077809 0.000000
0.408545 0.106522 0.000000
0.503137 0.163004 0.000000
0.564345 0.226261 0.000000
0.580213 0.291038 0.000000
0.583607 0.356595 0.000000
0.561558 0.407418 0.000000
0.532916 0.453821 0.000000
0.499994 0.500026 0.000000
0.467041 0.546194 0.000000
0.438431 0.592606 0.000000
0.416450 0.643453 0.000000
0.419791 0.708972 0.000000
0.435639 0.773760 0.000000
0.496792 0.836938 0.000000
0.591356 0.893475 0.000000
0.757425 0.922217 0.000000
1.000000 0.929109 0.000000
0.000000 0.083238 0.000000
0.205260 0.089721 0.000000
0.355141 0.113135 0.000000
0.445752 0.161217 0.000000
0.508577 0.217506 0.000000
0.526492 0.274914 0.000000
0.532261 0.335826 0.000000
0.509542 0.378162 0.000000
0.485120 0.422853 0.000000
0.453840 0.467067 0.000000
0.422844 0.514855 0.000000
0.392463 0.562163 0.000000
0.372448 0.617599 0.000000
0.371320 0.690805 0.000000
0.386015 0.764161 0.000000
0.442008 0.832973 0.000000
0.542704 0.897531 0.000000
0.725150 0.932689 0.000000
1.000000 0.939806 0.000000
0.000000 0.099517 0.000000
0.169354 0.104861 0.000000
0.297760 0.123692 0.000000
0.376922 0.160371 0.000000
0.437513 0.203713 0.000000
0.463041 0.251421 0.000000
0.475774 0.303161 0.000000
0.457767 0.345665 0.000000
0.437843 0.392479 0.000000
0.407395 0.438440 0.000000
0.378195 0.490463 0.000000
0.345669 0.542264 0.000000
0.331458 0.607432 0.000000
0.327984 0.682708 0.000000
0.344806 0.761844 0.000000
0.394715 0.833641 0.000000
0.499413 0.900635 0.000000
0.692229 0.942024 0.000000
1.000000 0.949057 0.000000
0.000000 0.119063 0.000000
0.134764 0.123558 0.000000
0.241913 0.140177 0.000000
0.315805 0.172015 0.000000
0.371024 0.210661 0.000000
0.394438 0.252063 0.000000
0.407239 0.294006 0.000000
0.392588 0.331493 0.000000
0.382394 0.372455 0.000000
0.356563 0.416434 0.000000
0.335832 0.467744 0.000000
0.303164 0.524225 0.000000
0.294000 0.592727 0.000000
0.286880 0.675104 0.000000
0.306974 0.758219 0.000000
0.351684 0.836496 0.000000
0.460270 0.904219 0.000000
0.661317 0.950277 0.000000
1.000000 0.957016 0.000000
0.000000 0.145144 0.000000
0.098459 0.149286 0.000000
0.178379 0.162577 0.000000
0.237369 0.186126 0.000000
0.284255 0.214208 0.000000
0.309447 0.248496 0.000000
0.324882 0.286896 0.000000
0.317289 0.327976 0.000000
0.309193 0.371320 0.000000
0.291022 0.419791 0.000000
0.274903 0.473506 0.000000
0.251427 0.536930 0.000000
0.252055 0.605562 0.000000
0.248507 0.690536 0.000000
0.273443 0.772694 0.000000
0.320242 0.849970 0.000000
0.428897 0.912385 0.000000
0.639271 0.958667 0.000000
1.000000 0.964281 0.000000
0.000000 0.182621 0.000000
0.061798 0.186282 0.000000
0.117971 0.196761 0.000000
0.166176 0.216714 0.000000
0.205079 0.242090 0.000000
0.227341 0.273447 0.000000
0.241816 0.306971 0.000000
0.238120 0.344826 0.000000
0.235855 0.386020 0.000000
0.226225 0.435623 0.000000
0.217560 0.491351 0.000000
0.203719 0.562496 0.000000
0.210669 0.628984 0.000000
0.214226 0.715732 0.000000
0.242097 0.794906 0.000000
0.293329 0.867852 0.000000
0.400871 0.922897 0.000000
0.621200 0.966796 0.000000
1.000000 0.971186 0.000000
0.000000 0.252303 0.000000
0.038705 0.256316 0.000000
0.074884 0.262152 0.000000
0.105641 0.276078 0.000000
0.132150 0.293341 0.000000
0.150028 0.320246 0.000000
0.163462 0.351724 0.000000
0.166354 0.394724 0.000000
0.167038 0.441993 0.000000
0.163102 0.496746 0.000000
0.161229 0.554302 0.000000
0.160366 0.623117 0.000000
0.172032 0.684215 0.000000
0.186132 0.762663 0.000000
0.216712 0.833811 0.000000
0.276091 0.894368 0.000000
0.377990 0.937616 0.000000
0.607831 0.975148 0.000000
1.000000 0.978196 0.000000
0.000000 0.341745 0.000000
0.023243 0.348230 0.000000
0.044384 0.360148 0.000000
0.062395 0.378007 0.000000
0.077138 0.400854 0.000000
0.087642 0.428902 0.000000
0.095816 0.460274 0.000000
0.099396 0.499416 0.000000
0.102519 0.542637 0.000000
0.106554 0.591355 0.000000
0.113100 0.644793 0.000000
0.123643 0.702365 0.000000
0.140237 0.757908 0.000000
0.162545 0.821603 0.000000
0.196743 0.882018 0.000000
0.262150 0.925100 0.000000
0.360166 0.955637 0.000000
0.600830 0.983480 0.000000
1.000000 0.985243 0.000000
0.000000 0.593617 0.000000
0.008241 0.594191 0.000000
0.016532 0.600791 0.000000
0.024849 0.607819 0.000000
0.033190 0.621104 0.000000
0.041304 0.639097 0.000000
0.049728 0.661064 0.000000
0.058001 0.692090 0.000000
0.067347 0.724997 0.000000
0.077776 0.757422 0.000000
0.089817 0.794696 0.000000
0.104836 0.830680 0.000000
0.123643 0.865071 0.000000
0.149322 0.901550 0.000000
0.186298 0.938203 0.000000
0.256298 0.961274 0.000000
0.348195 0.976768 0.000000
0.594279 0.991759 0.000000
1.000000 0.992447 0.000000
0.000000 1.000000 0.000000
0.007575 1.000000 0.000000
0.014843 1.000000 0.000000
0.021850 1.000000 0.000000
0.028833 1.000000 0.000000
0.035702 1.000000 0.000000
0.043032 1.000000 0.000000
0.050993 1.000000 0.000000
0.060215 1.000000 0.000000
0.070910 1.000000 0.000000
0.083601 1.000000 0.000000
0.099736 1.000000 0.000000
0.119162 1.000000 0.000000
0.145204 1.000000 0.000000
0.182636 1.000000 0.000000
0.252280 1.000000 0.000000
0.341699 1.000000 0.000000
0.593687 1.000000 0.000000
1.000000 1.000000 0.000000
0.000000 0.000000 0.055182
0.406525 0.000000 0.055051
0.658134 0.000000 0.055032
0.747625 0.000000 0.055015
0.817342 0.000000 0.054977
0.854872 0.000000 0.055005
0.880925 0.000000 0.054989
0.900370 0.000000 0.054963
0.916463 0.000000 0.055049
0.929167 0.000000 0.055051
0.939828 0.000000 0.055090
0.949128 0.000000 0.054943
0.957087 0.000000 0.054976
0.964318 0.000000 0.054906
0.971251 0.000000 0.055041
0.978272 0.000000 0.054976
0.985287 0.000000 0.055099
0.992514 0.000000 0.055126
1.000000 0.000000 0.055076
0.000000 0.007471 0.055199
0.405880 0.008248 0.055063
0.651666 0.023262 0.054993
0.743676 0.038672 0.054987
0.813710 0.061843 0.055003
0.850700 0.098370 0.054974
0.876418 0.134726 0.054999
0.895111 0.169429 0.055010
0.910250 0.205311 0.054989
0.922215 0.242676 0.054954
0.932682 0.274936 0.055005
0.942040 0.307734 0.054971
0.950259 0.339056 0.054957
0.958613 0.361027 0.055009
0.966761 0.379033 0.055013
0.975149 0.391914 0.055017
0.983485 0.399064 0.055051
0.991751 0.405918 0.055035
1.000000 0.406651 0.055055
0.000000 0.014696 0.055100
0.399004 0.016518 0.055055
0.639900 0.044407 0.054999
0.737879 0.074881 0.054995
0.803237 0.118045 0.054977
0.837502 0.178385 0.055009
0.859799 0.241960 0.054980
0.876348 0.297757 0.055004
0.886929 0.355196 0.054958
0.893471 0.408634 0.054979
0.897560 0.457136 0.055013
0.900641 0.500414 0.055002
0.904076 0.539836 0.055001
0.912283 0.571129 0.054990
0.922809 0.599150 0.055010
0.937600 0.622063 0.055003
0.955590 0.639854 0.055009
0.976731 0.651674 0.055008
1.000000 0.658151 0.055004
0.000000 0.021685 0.054957
0.391919 0.024862 0.054987
0.622064 0.062372 0.054993
0.723825 0.105644 0.054974
0.783357 0.166165 0.055015
0.813853 0.237364 0.055000
0.828005 0.315735 0.055012
0.839656 0.376929 0.055001
0.838777 0.445719 0.054999
0.836971 0.503190 0.055027
0.832954 0.558035 0.054996
0.833642 0.605218 0.055010
0.836421 0.648384 0.055007
0.849998 0.679747 0.054974
0.867878 0.706645 0.054988
0.894385 0.723832 0.054976
0.925135 0.737882 0.054976
0.961329 0.743673 0.054987
1.000000 0.747606 0.054998
0.000000 0.028700 0.054957
0.378985 0.033252 0.054979
0.599163 0.077159 0.054992
0.706624 0.132138 0.054996
0.757948 0.205064 0.054993
0.785747 0.284254 0.054995
0.789382 0.370994 0.055002
0.796299 0.437511 0.055004
0.782486 0.508675 0.054999
0.773801 0.564322 0.054996
0.764120 0.613931 0.055003
0.761883 0.655156 0.055005
0.758198 0.693028 0.055018
0.772692 0.726574 0.055022
0.794938 0.757929 0.054994
0.833821 0.783347 0.055026
0.881937 0.803235 0.055011
0.938170 0.813704 0.055002
1.000000 0.817342 0.054973
0.000000 0.035625 0.054868
0.361094 0.041407 0.054971
0.571162 0.087709 0.054992
0.679743 0.150008 0.054988
0.726568 0.227327 0.055013
0.751494 0.309458 0.054988
0.747944 0.394479 0.054997
0.748588 0.463099 0.055014
0.725072 0.526515 0.055012
0.708964 0.580224 0.054991
0.690822 0.628731 0.054997
0.682672 0.672034 0.055016
0.675190 0.713100 0.054991
0.690541 0.751500 0.054985
0.715748 0.785765 0.054998
0.762614 0.813848 0.054979
0.821634 0.837482 0.054988
0.901636 0.850710 0.054988
1.000000 0.854897 0.055017
0.000000 0.042884 0.054932
0.338978 0.049740 0.054939
0.539831 0.095903 0.055029
0.648381 0.163581 0.055011
0.693038 0.241825 0.054996
0.713108 0.324840 0.055004
0.706003 0.407209 0.055008
0.696855 0.475759 0.054997
0.664145 0.532233 0.054992
0.643474 0.583584 0.054996
0.617593 0.627518 0.055005
0.607355 0.668488 0.054987
0.592794 0.705999 0.055012
0.605553 0.747932 0.054985
0.628989 0.789370 0.054999
0.684211 0.828000 0.054999
0.758043 0.859779 0.055012
0.865227 0.876430 0.055001
1.000000 0.881011 0.054996
0.000000 0.050848 0.054967
0.307796 0.057961 0.054979
0.500457 0.099379 0.055006
0.605202 0.166345 0.055017
0.655153 0.238100 0.054987
0.672021 0.317306 0.055010
0.668521 0.392613 0.054994
0.654331 0.457728 0.054998
0.621829 0.509518 0.054993
0.592624 0.561574 0.055003
0.562150 0.607491 0.055007
0.542247 0.654331 0.054999
0.524251 0.696858 0.054993
0.536922 0.748588 0.055004
0.562483 0.796284 0.055002
0.623075 0.839664 0.054987
0.702244 0.876340 0.054997
0.830560 0.895162 0.055006
1.000000 0.900483 0.055023
0.000000 0.060117 0.055066
0.274821 0.067295 0.055016
0.457157 0.102451 0.055030
0.558029 0.167065 0.055007
0.613921 0.235831 0.055032
0.628717 0.309169 0.055011
0.627535 0.382405 0.055018
0.607504 0.437867 0.054985
0.577150 0.485146 0.054996
0.546187 0.532924 0.055004
0.514858 0.577150 0.055008
0.490505 0.621829 0.055005
0.467768 0.664167 0.055011
0.473488 0.725068 0.055024
0.491365 0.782478 0.055007
0.554274 0.838770 0.054979
0.644791 0.886904 0.054995
0.794661 0.910259 0.055018
1.000000 0.916606 0.054991
0.000000 0.070773 0.055030
0.242625 0.077781 0.054967
0.408564 0.106497 0.055023
0.503189 0.163026 0.054995
0.564339 0.226255 0.055013
0.580244 0.291055 0.055001
0.583569 0.356561 0.055011
0.561581 0.407382 0.055004
0.532936 0.453813 0.055005
0.499995 0.500012 0.054997
0.467061 0.546190 0.055006
0.438420 0.592641 0.055008
0.416419 0.643453 0.054996
0.419794 0.708991 0.054983
0.435654 0.773787 0.055009
0.496814 0.836978 0.055014
0.591390 0.893462 0.055009
0.757445 0.922210 0.055027
1.000000 0.929331 0.055094
0.000000 0.083513 0.055057
0.205371 0.089744 0.054979
0.355169 0.113090 0.054998
0.445746 0.161198 0.055001
0.508631 0.217495 0.054997
0.526509 0.274915 0.054973
0.532245 0.335836 0.055008
0.509508 0.378175 0.054995
0.485142 0.422863 0.054982
0.453825 0.467066 0.055014
0.422859 0.514867 0.054986
0.392491 0.562130 0.055008
0.372470 0.617576 0.054999
0.371284 0.690781 0.054998
0.386050 0.764130 0.054981
0.441968 0.832964 0.054987
0.542879 0.897547 0.054993
0.725303 0.932694 0.054985
1.000000 0.940015 0.055004
0.000000 0.099621 0.054968
0.169424 0.104902 0.055021
0.297765 0.123662 0.055007
0.376927 0.160367 0.055003
0.437526 0.203698 0.054994
0.463075 0.251414 0.054999
0.475757 0.303134 0.054998
0.457762 0.345661 0.054995
0.437859 0.392500 0.054999
0.407360 0.438420 0.055002
0.378179 0.490504 0.054997
0.345640 0.542249 0.054987
0.331494 0.607406 0.055027
0.327991 0.682728 0.055001
0.344820 0.761854 0.055024
0.394803 0.833668 0.054991
0.499446 0.900572 0.054999
0.692255 0.942018 0.054974
1.000000 0.949320 0.055006
0.000000 0.119083 0.055012
0.134702 0.123603 0.055006
0.241920 0.140186 0.054999
0.315718 0.171987 0.055024
0.370984 0.210642 0.055013
0.394444 0.252054 0.055018
0.407191 0.293991 0.054971
0.392637 0.331494 0.055010
0.382405 0.372471 0.054994
0.356526 0.416427 0.055006
0.335839 0.467770 0.054999
0.303128 0.524237 0.054982
0.293989 0.592792 0.055010
0.286914 0.675177 0.055019
0.306912 0.758151 0.054971
0.351701 0.836446 0.055008
0.460137 0.904127 0.054989
0.661264 0.950224 0.055014
1.000000 0.957247 0.054985
0.000000 0.145112 0.055003
0.098425 0.149319 0.055000
0.178405 0.162558 0.054972
0.237369 0.186158 0.054977
0.284267 0.214238 0.054986
0.309500 0.248518 0.054995
0.324767 0.286923 0.054999
0.317291 0.327976 0.054993
0.309187 0.371271 0.055014
0.291040 0.419770 0.055005
0.274922 0.473492 0.054982
0.251402 0.536938 0.054997
0.252061 0.605556 0.055009
0.248506 0.690519 0.054989
0.273398 0.772726 0.055004
0.320274 0.849967 0.054997
0.428756 0.912286 0.055006
0.639245 0.958579 0.055011
1.000000 0.964443 0.055008
0.000000 0.182626 0.054998
0.061798 0.186270 0.055006
0.118003 0.196770 0.055016
0.166145 0.216692 0.054998
0.205090 0.242051 0.055002
0.227286 0.273401 0.055001
0.241801 0.306924 0.055002
0.238132 0.344825 0.055008
0.235858 0.386063 0.054995
0.226223 0.435629 0.055032
0.217513 0.491342 0.054992
0.203701 0.562476 0.054993
0.210642 0.629021 0.055010
0.214239 0.715728 0.055000
0.242060 0.794940 0.054993
0.293379 0.867871 0.054988
0.400718 0.922813 0.055004
0.621147 0.966705 0.055029
1.000000 0.971333 0.054970
0.000000 0.252328 0.054980
0.038690 0.256284 0.054990
0.074896 0.262070 0.054989
0.105639 0.276137 0.055014
0.132147 0.293379 0.054982
0.150010 0.320307 0.054999
0.163526 0.351717 0.055005
0.166341 0.394783 0.055011
0.167024 0.441971 0.055002
0.163020 0.496819 0.055013
0.161213 0.554285 0.054985
0.160368 0.623061 0.055006
0.171998 0.684262 0.055013
0.186148 0.762632 0.054969
0.216680 0.833824 0.055008
0.276156 0.894378 0.055003
0.377943 0.937655 0.055011
0.608251 0.975092 0.055008
1.000000 0.978302 0.054985
0.000000 0.341664 0.054987
0.023248 0.348284 0.055013
0.044356 0.360192 0.055005
0.062342 0.377908 0.054998
0.077145 0.400756 0.055005
0.087693 0.428773 0.055011
0.095869 0.460162 0.055018
0.099411 0.499476 0.054999
0.102453 0.542872 0.054980
0.106545 0.591365 0.055021
0.113093 0.644808 0.055002
0.123676 0.702185 0.054986
0.140194 0.758085 0.055032
0.162546 0.821605 0.054959
0.196760 0.881976 0.055020
0.262081 0.925096 0.054989
0.360198 0.955636 0.055006
0.601158 0.983449 0.054994
1.000000 0.985325 0.055035
0.000000 0.593588 0.055017
0.008251 0.594376 0.054993
0.016547 0.601205 0.055017
0.024904 0.608308 0.055026
0.033291 0.621209 0.055034
0.041414 0.639244 0.055014
0.049756 0.661175 0.055017
0.057976 0.692225 0.054943
0.067310 0.725230 0.054962
0.077789 0.757378 0.055047
0.089725 0.794653 0.055013
0.104852 0.830557 0.055009
0.123580 0.865283 0.055013
0.149307 0.901593 0.054995
0.186272 0.938191 0.055008
0.256300 0.961310 0.054992
0.348282 0.976749 0.055009
0.594352 0.991743 0.054982
1.000000 0.992563 0.054972
0.000000 1.000000 0.054834
0.007436 1.000000 0.054889
0.014677 1.000000 0.055006
0.021715 1.000000 0.055046
0.028683 1.000000 0.055023
0.035555 1.000000 0.055009
0.042734 1.000000 0.054886
0.050670 1.000000 0.054931
0.059973 1.000000 0.054977
0.070674 1.000000 0.055092
0.083401 1.000000 0.055003
0.099532 1.000000 0.054991
0.118987 1.000000 0.055042
0.145116 1.000000 0.055032
0.182630 1.000000 0.054981
0.252344 1.000000 0.054997
0.341648 1.000000 0.054983
0.593628 1.000000 0.055009
1.000000 1.000000 0.054927
0.000000 0.000000 0.109934
0.406402 0.000000 0.109982
0.658395 0.000000 0.109992
0.747709 0.000000 0.109947
0.817355 0.000000 0.110030
0.854861 0.000000 0.109962
0.880943 0.000000 0.110094
0.900459 0.000000 0.110088
0.916572 0.000000 0.109994
0.929307 0.000000 0.109983
0.940036 0.000000 0.110016
0.949276 0.000000 0.109968
0.957201 0.000000 0.109883
0.964353 0.000000 0.109966
0.971251 0.000000 0.109939
0.978238 0.000000 0.109983
0.985253 0.000000 0.109918