# vtk DataFile Version 2.0
Mesh for Fierro
ASCII 
DATASET UNSTRUCTURED_GRID

POINTS 2527 float
0.000000 0.000000 0.000000
0.521547 0.000000 0.000000
0.871697 0.000000 0.000000
0.903950 0.000000 0.000000
0.923914 0.000000 0.000000
0.937807 0.000000 0.000000
0.948207 0.000000 0.000000
0.956436 0.000000 0.000000
0.963277 0.000000 0.000000
0.968961 0.000000 0.000000
0.973669 0.000000 0.000000
0.977605 0.000000 0.000000
0.980785 0.000000 0.000000
0.983947 0.000000 0.000000
0.986708 0.000000 0.000000
0.989979 0.000000 0.000000
0.993533 0.000000 0.000000
0.997697 0.000000 0.000000
1.000000 0.000000 0.000000
0.000000 0.002222 0.000000
0.539566 0.006960 0.000000
0.859388 0.034167 0.000000
0.865602 0.111525 0.000000
0.902393 0.120135 0.000000
0.914678 0.205589 0.000000
0.924738 0.258915 0.000000
0.931519 0.314711 0.000000
0.936594 0.373524 0.000000
0.940896 0.428814 0.000000
0.945544 0.476093 0.000000
0.950170 0.521570 0.000000
0.955043 0.561195 0.000000
0.961844 0.585379 0.000000
0.969191 0.601495 0.000000
0.977361 0.596740 0.000000
0.985342 0.581816 0.000000
0.993024 0.539841 0.000000
1.000000 0.520364 0.000000
0.000000 0.006370 0.000000
0.581320 0.014661 0.000000
0.840671 0.059052 0.000000
0.829306 0.161246 0.000000
0.888050 0.203456 0.000000
0.896810 0.346096 0.000000
0.900659 0.445514 0.000000
0.902864 0.519074 0.000000
0.900682 0.588808 0.000000
0.894869 0.639783 0.000000
0.886656 0.676161 0.000000
0.881052 0.701404 0.000000
0.882625 0.722391 0.000000
0.894160 0.743733 0.000000
0.912707 0.769708 0.000000
0.929008 0.805244 0.000000
0.940921 0.840479 0.000000
0.965562 0.859716 0.000000
1.000000 0.872491 0.000000
0.000000 0.009967 0.000000
0.597311 0.022685 0.000000
0.805320 0.071064 0.000000
0.823069 0.193967 0.000000
0.876183 0.293552 0.000000
0.868519 0.422226 0.000000
0.852295 0.518395 0.000000
0.847038 0.574870 0.000000
0.823706 0.632725 0.000000
0.796500 0.678882 0.000000
0.768377 0.722221 0.000000
0.751536 0.760824 0.000000
0.747071 0.791219 0.000000
0.747842 0.814384 0.000000
0.771184 0.822721 0.000000
0.806271 0.823051 0.000000
0.839262 0.829583 0.000000
0.888807 0.865993 0.000000
1.000000 0.904752 0.000000
0.000000 0.013206 0.000000
0.601687 0.030849 0.000000
0.769547 0.087401 0.000000
0.822840 0.228935 0.000000
0.845493 0.351202 0.000000
0.837433 0.457969 0.000000
0.795953 0.559915 0.000000
0.779348 0.620167 0.000000
0.733985 0.679681 0.000000
0.693409 0.716744 0.000000
0.665939 0.742163 0.000000
0.643459 0.760643 0.000000
0.632085 0.780543 0.000000
0.630935 0.807704 0.000000
0.648856 0.845619 0.000000
0.706799 0.876080 0.000000
0.796366 0.887934 0.000000
0.879749 0.903545 0.000000
1.000000 0.927575 0.000000
0.000000 0.015951 0.000000
0.585119 0.038167 0.000000
0.743638 0.105905 0.000000
0.814335 0.251883 0.000000
0.807896 0.368802 0.000000
0.807944 0.474614 0.000000
0.749706 0.559615 0.000000
0.725445 0.620914 0.000000
0.677949 0.657391 0.000000
0.626740 0.681128 0.000000
0.581411 0.707298 0.000000
0.541472 0.738365 0.000000
0.523891 0.773626 0.000000
0.525378 0.807971 0.000000
0.542083 0.837373 0.000000
0.577598 0.868597 0.000000
0.653831 0.896643 0.000000
0.793558 0.914413 0.000000
1.000000 0.938409 0.000000
0.000000 0.019087 0.000000
0.560960 0.044954 0.000000
0.722312 0.117392 0.000000
0.791241 0.252928 0.000000
0.780566 0.368026 0.000000
0.773739 0.476025 0.000000
0.713441 0.547316 0.000000
0.669364 0.606230 0.000000
0.601337 0.630253 0.000000
0.551085 0.656080 0.000000
0.507242 0.673481 0.000000
0.480719 0.695830 0.000000
0.452573 0.713530 0.000000
0.440378 0.749772 0.000000
0.440012 0.796154 0.000000
0.481694 0.852479 0.000000
0.554397 0.900681 0.000000
0.741635 0.924264 0.000000
1.000000 0.946935 0.000000
0.000000 0.022243 0.000000
0.521239 0.049804 0.000000
0.701334 0.118973 0.000000
0.760901 0.248467 0.000000
0.760566 0.356566 0.000000
0.738376 0.458505 0.000000
0.695769 0.519214 0.000000
0.643732 0.570292 0.000000
0.585634 0.587320 0.000000
0.527423 0.606202 0.000000
0.475172 0.621254 0.000000
0.429770 0.643730 0.000000
0.393808 0.669330 0.000000
0.379064 0.725440 0.000000
0.379840 0.779303 0.000000
0.425240 0.847251 0.000000
0.480713 0.903000 0.000000
0.685293 0.931304 0.000000
1.000000 0.955603 0.000000
0.000000 0.026154 0.000000
0.475839 0.054428 0.000000
0.676122 0.113355 0.000000
0.722281 0.231549 0.000000
0.742143 0.334046 0.000000
0.707282 0.418536 0.000000
0.673549 0.492696 0.000000
0.621308 0.524803 0.000000
0.568117 0.539528 0.000000
0.511956 0.554948 0.000000
0.460450 0.568117 0.000000
0.412607 0.585651 0.000000
0.369738 0.601373 0.000000
0.342603 0.677985 0.000000
0.320197 0.733984 0.000000
0.367364 0.823670 0.000000
0.410630 0.900682 0.000000
0.625998 0.936520 0.000000
1.000000 0.962794 0.000000
0.000000 0.030868 0.000000
0.428793 0.059064 0.000000
0.639775 0.105178 0.000000
0.678980 0.203560 0.000000
0.716743 0.306586 0.000000
0.681117 0.373303 0.000000
0.656051 0.448939 0.000000
0.606142 0.472607 0.000000
0.554891 0.488058 0.000000
0.499968 0.499983 0.000000
0.445018 0.511948 0.000000
0.393818 0.527401 0.000000
0.343934 0.551120 0.000000
0.318925 0.626667 0.000000
0.283268 0.693410 0.000000
0.320961 0.796333 0.000000
0.359931 0.894781 0.000000
0.570754 0.940867 0.000000
1.000000 0.968668 0.000000
0.000000 0.036553 0.000000
0.374001 0.063357 0.000000
0.589132 0.099434 0.000000
0.632774 0.176380 0.000000
0.679687 0.265995 0.000000
0.657429 0.321954 0.000000
0.630294 0.398709 0.000000
0.587376 0.414373 0.000000
0.539503 0.431855 0.000000
0.488052 0.445127 0.000000
0.431903 0.460445 0.000000
0.378744 0.475167 0.000000
0.326484 0.507312 0.000000
0.292682 0.581514 0.000000
0.257855 0.665917 0.000000
0.277807 0.768661 0.000000
0.323710 0.886743 0.000000
0.523832 0.945566 0.000000
1.000000 0.973483 0.000000
0.000000 0.043349 0.000000
0.314813 0.068343 0.000000
0.519277 0.097106 0.000000
0.574896 0.152896 0.000000
0.620144 0.220704 0.000000
0.620842 0.274600 0.000000
0.606210 0.330677 0.000000
0.570305 0.356266 0.000000
0.524838 0.378765 0.000000
0.472571 0.393818 0.000000
0.414376 0.412602 0.000000
0.356244 0.429809 0.000000
0.304140 0.480806 0.000000
0.261695 0.541426 0.000000
0.239348 0.643650 0.000000
0.239178 0.751667 0.000000
0.298516 0.881192 0.000000
0.478845 0.950245 0.000000
1.000000 0.977455 0.000000
0.000000 0.051508 0.000000
0.258884 0.075018 0.000000
0.445586 0.099056 0.000000
0.518403 0.147472 0.000000
0.559884 0.203876 0.000000
0.559707 0.250240 0.000000
0.547247 0.286535 0.000000
0.519181 0.304274 0.000000
0.492720 0.326572 0.000000
0.448838 0.343901 0.000000
0.398695 0.369705 0.000000
0.330704 0.393837 0.000000
0.286472 0.452655 0.000000
0.226345 0.523714 0.000000
0.219438 0.632151 0.000000
0.208743 0.747085 0.000000
0.277592 0.882768 0.000000
0.439015 0.955094 0.000000
1.000000 0.980645 0.000000
0.000000 0.062135 0.000000
0.205945 0.085219 0.000000
0.346231 0.103044 0.000000
0.422588 0.131520 0.000000
0.457983 0.162551 0.000000
0.474551 0.192033 0.000000
0.476199 0.226265 0.000000
0.458591 0.261663 0.000000
0.418533 0.292646 0.000000
0.373318 0.318859 0.000000
0.322042 0.342591 0.000000
0.274593 0.379113 0.000000
0.250208 0.440298 0.000000
0.192073 0.525293 0.000000
0.192301 0.631238 0.000000
0.185605 0.747999 0.000000
0.256308 0.894399 0.000000
0.414587 0.961871 0.000000
1.000000 0.983838 0.000000
0.000000 0.076320 0.000000
0.120162 0.097700 0.000000
0.203717 0.112026 0.000000
0.293363 0.123938 0.000000
0.351271 0.154493 0.000000
0.368732 0.192253 0.000000
0.367889 0.219355 0.000000
0.356362 0.239419 0.000000
0.334121 0.257858 0.000000
0.306597 0.283221 0.000000
0.266084 0.320215 0.000000
0.220707 0.379846 0.000000
0.203771 0.440031 0.000000
0.162602 0.542066 0.000000
0.154560 0.648733 0.000000
0.177297 0.771084 0.000000
0.230201 0.912870 0.000000
0.398236 0.969182 0.000000
1.000000 0.986612 0.000000
0.000000 0.096389 0.000000
0.111479 0.134470 0.000000
0.160974 0.170738 0.000000
0.193596 0.177214 0.000000
0.228979 0.177333 0.000000
0.252010 0.185649 0.000000
0.252909 0.208806 0.000000
0.248329 0.239167 0.000000
0.231452 0.277738 0.000000
0.203766 0.320961 0.000000
0.176321 0.367391 0.000000
0.152768 0.425196 0.000000
0.147413 0.481678 0.000000
0.131494 0.577491 0.000000
0.123922 0.706409 0.000000
0.177144 0.806370 0.000000
0.194739 0.929167 0.000000
0.403188 0.977316 0.000000
1.000000 0.989926 0.000000
0.000000 0.128779 0.000000
0.034164 0.140738 0.000000
0.059086 0.159420 0.000000
0.070896 0.194750 0.000000
0.087179 0.230141 0.000000
0.105639 0.256249 0.000000
0.117244 0.277577 0.000000
0.118846 0.298558 0.000000
0.113344 0.323775 0.000000
0.105291 0.359943 0.000000
0.099311 0.410650 0.000000
0.096931 0.480789 0.000000
0.099045 0.554244 0.000000
0.103079 0.653747 0.000000
0.112258 0.796252 0.000000
0.170601 0.838972 0.000000
0.159432 0.941018 0.000000
0.417776 0.985293 0.000000
1.000000 0.993529 0.000000
0.000000 0.478480 0.000000
0.007009 0.459441 0.000000
0.014752 0.417512 0.000000
0.022703 0.403265 0.000000
0.030830 0.398182 0.000000
0.038139 0.414434 0.000000
0.044888 0.438731 0.000000
0.049709 0.478540 0.000000
0.054360 0.523477 0.000000
0.059007 0.570537 0.000000
0.063289 0.625953 0.000000
0.068306 0.685150 0.000000
0.074962 0.741390 0.000000
0.085231 0.793989 0.000000
0.097435 0.879794 0.000000
0.134277 0.888570 0.000000
0.140662 0.965824 0.000000
0.459376 0.992995 0.000000
1.000000 0.997700 0.000000
0.000000 1.000000 0.000000
0.002263 1.000000 0.000000
0.006382 1.000000 0.000000
0.009930 1.000000 0.000000
0.013213 1.000000 0.000000
0.015944 1.000000 0.000000
0.019093 1.000000 0.000000
0.022227 1.000000 0.000000
0.026137 1.000000 0.000000
0.030815 1.000000 0.000000
0.036587 1.000000 0.000000
0.043509 1.000000 0.000000
0.051827 1.000000 0.000000
0.061900 1.000000 0.000000
0.075573 1.000000 0.000000
0.096133 1.000000 0.000000
0.128517 1.000000 0.000000
0.479008 1.000000 0.000000
1.000000 1.000000 0.000000
0.000000 0.000000 0.055146
0.521554 0.000000 0.055129
0.869219 0.000000 0.055117
0.902398 0.000000 0.055246
0.923767 0.000000 0.054990
[...]
POINT_DATA 2527 
VECTORS pos float 
0.000000 0.000000 0.000000
0.521547 0.000000 0.000000
0.871697 0.000000 0.000000
0.903950 0.000000 0.000000
0.923914 0.000000 0.000000
0.937807 0.000000 0.000000
0.948207 0.000000 0.000000
0.956436 0.000000 0.000000
0.963277 0.000000 0.000000
0.968961 0.000000 0.000000
0.973669 0.000000 0.000000
0.977605 0.000000 0.000000
0.980785 0.000000 0.000000
0.983947 0.000000 0.000000
0.986708 0.000000 0.000000
0.989979 0.000000 0.000000
0.993533 0.000000 0.000000
0.997697 0.000000 0.000000
1.000000 0.000000 0.000000
0.000000 0.002222 0.000000
0.539566 0.006960 0.000000
0.859388 0.034167 0.000000
0.865602 0.111525 0.000000
0.902393 0.120135 0.000000
0.914678 0.205589 0.000000
0.924738 0.258915 0.000000
0.931519 0.314711 0.000000
0.936594 0.373524 0.000000
0.940896 0.428814 0.000000
0.945544 0.476093 0.000000
0.950170 0.521570 0.000000
0.955043 0.561195 0.000000
0.961844 0.585379 0.000000
0.969191 0.601495 0.000000
0.977361 0.596740 0.000000
0.985342 0.581816 0.000000
0.993024 0.539841 0.000000
1.000000 0.520364 0.000000
0.000000 0.006370 0.000000
0.581320 0.014661 0.000000
0.840671 0.059052 0.000000
0.829306 0.161246 0.000000
0.888050 0.203456 0.000000
0.896810 0.346096 0.000000
0.900659 0.445514 0.000000
0.902864 0.519074 0.000000
0.900682 0.588808 0.000000
0.894869 0.639783 0.000000
0.886656 0.676161 0.000000
0.881052 0.701404 0.000000
0.882625 0.722391 0.000000
0.894160 0.743733 0.000000
0.912707 0.769708 0.000000
0.929008 0.805244 0.000000
0.940921 0.840479 0.000000
0.965562 0.859716 0.000000
1.000000 0.872491 0.000000
0.000000 0.009967 0.000000
0.597311 0.022685 0.000000
0.805320 0.071064 0.000000
0.823069 0.193967 0.000000
0.876183 0.293552 0.000000
0.868519 0.422226 0.000000
0.852295 0.518395 0.000000
0.847038 0.574870 0.000000
0.823706 0.632725 0.000000
0.796500 0.678882 0.000000
0.768377 0.722221 0.000000
0.751536 0.760824 0.000000
0.747071 0.791219 0.000000
0.747842 0.814384 0.000000
0.771184 0.822721 0.000000
0.806271 0.823051 0.000000
0.839262 0.829583 0.000000
0.888807 0.865993 0.000000
1.000000 0.904752 0.000000
0.000000 0.013206 0.000000
0.601687 0.030849 0.000000
0.769547 0.087401 0.000000
0.822840 0.228935 0.000000
0.845493 0.351202 0.000000
0.837433 0.457969 0.000000
0.795953 0.559915 0.000000
0.779348 0.620167 0.000000
0.733985 0.679681 0.000000
0.693409 0.716744 0.000000
0.665939 0.742163 0.000000
0.643459 0.760643 0.000000
0.632085 0.780543 0.000000
0.630935 0.807704 0.000000
0.648856 0.845619 0.000000
0.706799 0.876080 0.000000
0.796366 0.887934 0.000000
0.879749 0.903545 0.000000
1.000000 0.927575 0.000000
0.000000 0.015951 0.000000
0.585119 0.038167 0.000000
0.743638 0.105905 0.000000
0.814335 0.251883 0.000000
0.807896 0.368802 0.000000
0.807944 0.474614 0.000000
0.749706 0.559615 0.000000
0.725445 0.620914 0.000000
0.677949 0.657391 0.000000
0.626740 0.681128 0.000000
0.581411 0.707298 0.000000
0.541472 0.738365 0.000000
0.523891 0.773626 0.000000
0.525378 0.807971 0.000000
0.542083 0.837373 0.000000
0.577598 0.868597 0.000000
0.653831 0.896643 0.000000
0.793558 0.914413 0.000000
1.000000 0.938409 0.000000
0.000000 0.019087 0.000000
0.560960 0.044954 0.000000
0.722312 0.117392 0.000000
0.791241 0.252928 0.000000
0.780566 0.368026 0.000000
0.773739 0.476025 0.000000
0.713441 0.547316 0.000000
0.669364 0.606230 0.000000
0.601337 0.630253 0.000000
0.551085 0.656080 0.000000
0.507242 0.673481 0.000000
0.480719 0.695830 0.000000
0.452573 0.713530 0.000000
0.440378 0.749772 0.000000
0.440012 0.796154 0.000000
0.481694 0.852479 0.000000
0.554397 0.900681 0.000000
0.741635 0.924264 0.000000
1.000000 0.946935 0.000000
0.000000 0.022243 0.000000
0.521239 0.049804 0.000000
0.701334 0.118973 0.000000
0.760901 0.248467 0.000000
0.760566 0.356566 0.000000
0.738376 0.458505 0.000000
0.695769 0.519214 0.000000
0.643732 0.570292 0.000000
0.585634 0.587320 0.000000
0.527423 0.606202 0.000000
0.475172 0.621254 0.000000
0.429770 0.643730 0.000000
0.393808 0.669330 0.000000
0.379064 0.725440 0.000000
0.379840 0.779303 0.000000
0.425240 0.847251 0.000000
0.480713 0.903000 0.000000
0.685293 0.931304 0.000000
1.000000 0.955603 0.000000
0.000000 0.026154 0.000000
0.475839 0.054428 0.000000
0.676122 0.113355 0.000000
0.722281 0.231549 0.000000
0.742143 0.334046 0.000000
0.707282 0.418536 0.000000
0.673549 0.492696 0.000000
0.621308 0.524803 0.000000
0.568117 0.539528 0.000000
0.511956 0.554948 0.000000
0.460450 0.568117 0.000000
0.412607 0.585651 0.000000
0.369738 0.601373 0.000000
0.342603 0.677985 0.000000
0.320197 0.733984 0.000000
0.367364 0.823670 0.000000
0.410630 0.900682 0.000000
0.625998 0.936520 0.000000
1.000000 0.962794 0.000000
0.000000 0.030868 0.000000
0.428793 0.059064 0.000000
0.639775 0.105178 0.000000
0.678980 0.203560 0.000000
0.716743 0.306586 0.000000
0.681117 0.373303 0.000000
0.656051 0.448939 0.000000
0.606142 0.472607 0.000000
0.554891 0.488058 0.000000
0.499968 0.499983 0.000000
0.445018 0.511948 0.000000
0.393818 0.527401 0.000000
0.343934 0.551120 0.000000
0.318925 0.626667 0.000000
0.283268 0.693410 0.000000
0.320961 0.796333 0.000000
0.359931 0.894781 0.000000
0.570754 0.940867 0.000000
1.000000 0.968668 0.000000
0.000000 0.036553 0.000000
0.374001 0.063357 0.000000
0.589132 0.099434 0.000000
0.632774 0.176380 0.000000
0.679687 0.265995 0.000000
0.657429 0.321954 0.000000
0.630294 0.398709 0.000000
0.587376 0.414373 0.000000
0.539503 0.431855 0.000000
0.488052 0.445127 0.000000
0.431903 0.460445 0.000000
0.378744 0.475167 0.000000
0.326484 0.507312 0.000000
0.292682 0.581514 0.000000
0.257855 0.665917 0.000000
0.277807 0.768661 0.000000
0.323710 0.886743 0.000000
0.523832 0.945566 0.000000
1.000000 0.973483 0.000000
0.000000 0.043349 0.000000
0.314813 0.068343 0.000000
0.519277 0.097106 0.000000
0.574896 0.152896 0.000000
0.620144 0.220704 0.000000
0.620842 0.274600 0.000000
0.606210 0.330677 0.000000
0.570305 0.356266 0.000000
0.524838 0.378765 0.000000
0.472571 0.393818 0.000000
0.414376 0.412602 0.000000
0.356244 0.429809 0.000000
0.304140 0.480806 0.000000
0.261695 0.541426 0.000000
0.239348 0.643650 0.000000
0.239178 0.751667 0.000000
0.298516 0.881192 0.000000
0.478845 0.950245 0.000000
1.000000 0.977455 0.000000
0.000000 0.051508 0.000000
0.258884 0.075018 0.000000
0.445586 0.099056 0.000000
0.518403 0.147472 0.000000
0.559884 0.203876 0.000000
0.559707 0.250240 0.000000
0.547247 0.286535 0.000000
0.519181 0.304274 0.000000
0.492720 0.326572 0.000000
0.448838 0.343901 0.000000
0.398695 0.369705 0.000000
0.330704 0.393837 0.000000
0.286472 0.452655 0.000000
0.226345 0.523714 0.000000
0.219438 0.632151 0.000000
0.208743 0.747085 0.000000
0.277592 0.882768 0.000000
0.439015 0.955094 0.000000
1.000000 0.980645 0.000000
0.000000 0.062135 0.000000
0.205945 0.085219 0.000000
0.346231 0.103044 0.000000
0.422588 0.131520 0.000000
0.457983 0.162551 0.000000
0.474551 0.192033 0.000000
0.476199 0.226265 0.000000
0.458591 0.261663 0.000000
0.418533 0.292646 0.000000
0.373318 0.318859 0.000000
0.322042 0.342591 0.000000
0.274593 0.379113 0.000000
0.250208 0.440298 0.000000
0.192073 0.525293 0.000000
0.192301 0.631238 0.000000
0.185605 0.747999 0.000000
0.256308 0.894399 0.000000
0.414587 0.961871 0.000000
1.000000 0.983838 0.000000
0.000000 0.076320 0.000000
0.120162 0.097700 0.000000
0.203717 0.112026 0.000000
0.293363 0.123938 0.000000
0.351271 0.154493 0.000000
0.368732 0.192253 0.000000
0.367889 0.219355 0.000000
0.356362 0.239419 0.000000
0.334121 0.257858 0.000000
0.306597 0.283221 0.000000
0.266084 0.320215 0.000000
0.220707 0.379846 0.000000
0.203771 0.440031 0.000000
0.162602 0.542066 0.000000
0.154560 0.648733 0.000000
0.177297 0.771084 0.000000
0.230201 0.912870 0.000000
0.398236 0.969182 0.000000
1.000000 0.986612 0.000000
0.000000 0.096389 0.000000
0.111479 0.134470 0.000000
0.160974 0.170738 0.000000
0.193596 0.177214 0.000000
0.228979 0.177333 0.000000
0.252010 0.185649 0.000000
0.252909 0.208806 0.000000
0.248329 0.239167 0.000000
0.231452 0.277738 0.000000
0.203766 0.320961 0.000000
0.176321 0.367391 0.000000
0.152768 0.425196 0.000000
0.147413 0.481678 0.000000
0.131494 0.577491 0.000000
0.123922 0.706409 0.000000
0.177144 0.806370 0.000000
0.194739 0.929167 0.000000
0.403188 0.977316 0.000000
1.000000 0.989926 0.000000
0.000000 0.128779 0.000000
0.034164 0.140738 0.000000
0.059086 0.159420 0.000000
0.070896 0.194750 0.000000
0.087179 0.230141 0.000000
0.105639 0.256249 0.000000
0.117244 0.277577 0.000000
0.118846 0.298558 0.000000
0.113344 0.323775 0.000000
0.105291 0.359943 0.000000
0.099311 0.410650 0.000000
0.096931 0.480789 0.000000
0.099045 0.554244 0.000000
0.103079 0.653747 0.000000
0.112258 0.796252 0.000000
0.170601 0.838972 0.000000
0.159432 0.941018 0.000000
0.417776 0.985293 0.000000
1.000000 0.993529 0.000000
0.000000 0.478480 0.000000
0.007009 0.459441 0.000000
0.014752 0.417512 0.000000
0.022703 0.403265 0.000000
0.030830 0.398182 0.000000
0.038139 0.414434 0.000000
0.044888 0.438731 0.000000
0.049709 0.478540 0.000000
0.054360 0.523477 0.000000
0.059007 0.570537 0.000000
0.063289 0.625953 0.000000
0.068306 0.685150 0.000000
0.074962 0.741390 0.000000
0.085231 0.793989 0.000000
0.097435 0.879794 0.000000
0.134277 0.888570 0.000000
0.140662 0.965824 0.000000
0.459376 0.992995 0.000000
1.000000 0.997700 0.000000
0.000000 1.000000 0.000000
0.002263 1.000000 0.000000
0.006382 1.000000 0.000000
0.009930 1.000000 0.000000
0.013213 1.000000 0.000000
0.015944 1.000000 0.000000
0.019093 1.000000 0.000000
0.022227 1.000000 0.000000
0.026137 1.000000 0.000000
0.030815 1.000000 0.000000
0.036587 1.000000 0.000000
0.043509 1.000000 0.000000
0.051827 1.000000 0.000000
0.061900 1.000000 0.000000
0.075573 1.000000 0.000000
0.096133 1.000000 0.000000
0.128517 1.000000 0.000000
0.479008 1.000000 0.000000
1.000000 1.000000 0.000000
0.000000 0.000000 0.055146
0.521554 0.000000 0.055129
0.869219 0.000000 0.055117
0.902398 0.000000 0.055246
0.923767 0.000000 0.054990
0.938474 0.000000 0.054041
0.949217 0.000000 0.054899
0.957210 0.000000 0.055155
0.963919 0.000000 0.055237
0.969567 0.000000 0.055295
0.974167 0.000000 0.055131
0.977995 0.000000 0.054999
0.981117 0.000000 0.054923
0.984230 0.000000 0.054878
0.986933 0.000000 0.054948
0.990183 0.000000 0.054902
0.993738 0.000000 0.054925
0.997856 0.000000 0.055102
1.000000 0.000000 0.055336
0.000000 0.002192 0.055184
0.540550 0.006997 0.055131
0.858529 0.034154 0.055074
0.865317 0.112108 0.054925
0.902625 0.119641 0.055188
0.914991 0.205911 0.054644
0.925256 0.258744 0.055099
0.931799 0.315192 0.055169
0.936735 0.374050 0.055031
0.940980 0.429403 0.054979
0.945581 0.476533 0.055004
0.950197 0.521379 0.054948
0.954965 0.561523 0.054959
0.961725 0.585843 0.054986
0.969050 0.602075 0.055027
0.977269 0.596417 0.054983
0.985254 0.581368 0.055117
0.993026 0.540711 0.055130
1.000000 0.522248 0.054989
0.000000 0.006320 0.055057
0.581875 0.014758 0.055053
0.840386 0.058831 0.055050
0.829495 0.161257 0.054967
0.888183 0.203774 0.055013
0.896963 0.346163 0.054984
0.900836 0.445462 0.054968
0.902862 0.519342 0.054949
0.900584 0.589225 0.054905
0.894715 0.639837 0.054946
0.886653 0.676081 0.054965
0.881083 0.701317 0.055014
0.882596 0.722320 0.055056
0.894079 0.743710 0.055006
0.912456 0.769870 0.055164
0.929168 0.805338 0.055057
0.941385 0.840341 0.055199
0.966004 0.858286 0.054891
1.000000 0.868546 0.055423
0.000000 0.009869 0.054977
0.596816 0.022744 0.055002
0.805279 0.070951 0.054967
0.823010 0.193930 0.054968
0.876208 0.293211 0.055017
0.868521 0.422474 0.055064
0.852541 0.518308 0.054975
0.847096 0.574846 0.054983
0.823630 0.632683 0.055008
0.796291 0.679052 0.055050
0.768584 0.722278 0.055032
0.751634 0.760859 0.055011
0.747176 0.791233 0.054983
0.748027 0.814392 0.054975
0.770854 0.822891 0.054881
0.805919 0.823000 0.054861
0.838664 0.829386 0.054886
0.887804 0.865208 0.054776
1.000000 0.902024 0.054116
0.000000 0.013118 0.054982
0.602060 0.030927 0.054960
0.769802 0.087485 0.055036
0.822836 0.229021 0.054947
0.845533 0.351275 0.054970
0.837435 0.457929 0.055011
0.796078 0.559838 0.054980
0.779281 0.620144 0.054991
0.733951 0.679804 0.054994
0.693393 0.716712 0.055030
0.665905 0.742108 0.054985
0.643653 0.760587 0.055014
0.632016 0.780598 0.055104
0.631216 0.807791 0.054976
0.648672 0.845527 0.055003
0.706883 0.876286 0.055072
0.796315 0.888206 0.055090
0.880492 0.902117 0.054787
1.000000 0.921946 0.054736
0.000000 0.015822 0.054920
0.585724 0.038244 0.054930
0.743637 0.105898 0.055091
0.814394 0.252025 0.054977
0.807721 0.368865 0.055010
0.807947 0.474553 0.055021
0.749730 0.559701 0.054985
0.725433 0.620975 0.055002
0.677957 0.657398 0.055025
0.626633 0.681111 0.054974
0.581470 0.707389 0.055008
0.541365 0.738328 0.054999
0.523885 0.773723 0.055018
0.525458 0.807904 0.054933
0.542067 0.837437 0.055010
0.577503 0.868469 0.054994
0.653924 0.897076 0.055062
0.794220 0.915145 0.055203
1.000000 0.938309 0.057107
0.000000 0.018941 0.054926
0.561238 0.044990 0.054916
0.722310 0.117358 0.055045
0.791221 0.252853 0.054989
0.780599 0.367913 0.054988
0.773688 0.476119 0.054978
0.713533 0.547314 0.054993
0.669367 0.606178 0.055000
0.601375 0.630215 0.054983
0.551155 0.656119 0.054993
0.507276 0.673459 0.055001
0.480766 0.695741 0.054991
0.452680 0.713516 0.055037
0.440281 0.749792 0.054997
0.440154 0.796040 0.054995
0.481711 0.852565 0.054981
0.554548 0.900830 0.054956
0.741053 0.925553 0.054930
1.000000 0.949901 0.054757
0.000000 0.022100 0.054968
0.521224 0.049789 0.054948
0.701326 0.118879 0.055054
0.760838 0.248372 0.055014
0.760584 0.356361 0.054988
0.738339 0.458586 0.054988
0.695765 0.519247 0.055019
0.643753 0.570227 0.054994
0.585641 0.587353 0.054996
0.527417 0.606198 0.055011
0.475216 0.621214 0.055011
0.429774 0.643735 0.055010
0.393855 0.669350 0.054993
0.379050 0.725434 0.054989
0.379835 0.779307 0.054977
0.425180 0.847117 0.054961
0.480669 0.902825 0.054990
0.684793 0.931959 0.054967
1.000000 0.957680 0.054642
0.000000 0.025994 0.055027
0.476234 0.054413 0.055012
0.676093 0.113294 0.055027
0.722280 0.231437 0.055039
0.742107 0.334031 0.055048
0.707376 0.418513 0.055046
0.673486 0.492708 0.055003
0.621232 0.524795 0.054974
0.568129 0.539549 0.055002
0.511957 0.554916 0.055001
0.460455 0.568131 0.054996
0.412656 0.585644 0.054992
0.369761 0.601412 0.055015
0.342596 0.677967 0.055012
0.320258 0.733962 0.055017
0.367277 0.823661 0.054976
0.410774 0.900513 0.054982
0.625839 0.936800 0.055050
1.000000 0.964223 0.054745
0.000000 0.030615 0.055137
0.429306 0.059051 0.054993
0.639838 0.105237 0.055026
0.679045 0.203649 0.055007
0.716701 0.306624 0.055011
0.681095 0.373389 0.054991
0.656098 0.448876 0.055022
0.606183 0.472605 0.055003
0.554926 0.488044 0.055009
0.500000 0.500013 0.055024
0.445070 0.511950 0.055008
0.393801 0.527406 0.055011
0.343939 0.551158 0.055004
0.318860 0.626675 0.054979
0.283287 0.693434 0.055019
0.320952 0.796359 0.054989
0.360165 0.894698 0.055070
0.570829 0.941016 0.055027
1.000000 0.969768 0.054976
0.000000 0.036236 0.055082
0.374290 0.063340 0.055020
0.589253 0.099443 0.055032
0.632717 0.176392 0.054988
0.679786 0.266014 0.055005
0.657422 0.322012 0.054964
0.630225 0.398634 0.055001
0.587361 0.414356 0.054992
0.539532 0.431875 0.054982
0.488049 0.445095 0.055013
0.431872 0.460452 0.054989
0.378742 0.475176 0.054999
0.326547 0.507293 0.055010
0.292660 0.581416 0.054985
0.257886 0.665900 0.054991
0.277742 0.768610 0.055006
0.323916 0.886632 0.055010
0.523784 0.945589 0.055008
1.000000 0.974309 0.054986
0.000000 0.042986 0.055003
0.315162 0.068326 0.055147
0.519336 0.097139 0.055044
0.574859 0.152916 0.055013
0.620132 0.220713 0.054970
0.620967 0.274568 0.055013
0.606192 0.330607 0.054997
0.570277 0.356269 0.055010
0.524803 0.378751 0.054975
0.472590 0.393799 0.055005
0.414375 0.412653 0.054985
0.356247 0.429732 0.054988
0.304262 0.480780 0.055006
0.261626 0.541414 0.055010
0.239425 0.643596 0.054998
0.239145 0.751674 0.054999
0.298648 0.880977 0.055042
0.478685 0.950167 0.054992
1.000000 0.978100 0.055037
0.000000 0.051027 0.054900
0.258494 0.074961 0.055121
0.445304 0.099214 0.055115
0.518285 0.147446 0.054994
0.559916 0.203944 0.054979
0.559640 0.250301 0.055004
0.547245 0.286504 0.054987
0.519229 0.304297 0.055035
0.492692 0.326549 0.055009
0.448823 0.343927 0.055027
0.398594 0.369781 0.055009
0.330584 0.393827 0.054963
0.286479 0.452710 0.055077
0.226307 0.523870 0.054975
0.219404 0.632119 0.055046
0.208703 0.747145 0.054995
0.277662 0.882484 0.055003
0.438907 0.954957 0.055023
1.000000 0.981223 0.055015
0.000000 0.061528 0.054197
0.206338 0.085157 0.054686
0.346205 0.103182 0.054824
0.422488 0.131540 0.054937
0.457918 0.162578 0.054957
0.474604 0.192044 0.054976
0.476079 0.226266 0.054951
0.458584 0.261624 0.054984
0.418608 0.292644 0.054974
0.373357 0.318861 0.055004
0.322058 0.342574 0.054968
0.274561 0.379036 0.054987
0.250263 0.440338 0.055022
0.192067 0.525412 0.054939
0.192305 0.631100 0.054995
0.185557 0.747969 0.054994
0.256304 0.893931 0.055001
0.414414 0.961689 0.055013
1.000000 0.984330 0.055017
0.000000 0.075685 0.055144
0.119852 0.097217 0.055138
0.203588 0.111859 0.055059
0.293085 0.123875 0.054933
0.351227 0.154481 0.055000
0.368875 0.192294 0.055039
0.367894 0.219459 0.055037
0.356399 0.239414 0.055020
0.334061 0.257875 0.055035
0.306613 0.283261 0.055047
0.266056 0.320228 0.054975
0.220719 0.379844 0.055011
0.203873 0.440099 0.054969
0.162589 0.542071 0.054993
0.154444 0.648791 0.055004
0.177125 0.770942 0.055049
0.230138 0.912385 0.055053
0.398139 0.969028 0.055051
1.000000 0.987002 0.054936
0.000000 0.097044 0.055826
0.111882 0.134446 0.054913
0.161226 0.170494 0.054941
0.193883 0.177005 0.055072
0.228972 0.177117 0.054966
0.251998 0.185590 0.055019
0.252835 0.208731 0.054999
0.248328 0.239159 0.055020
0.231428 0.277752 0.055016
0.203621 0.320980 0.054984
0.176373 0.367288 0.054998
0.152898 0.425158 0.055007
0.147443 0.481740 0.055014
0.131576 0.577543 0.054859
0.123764 0.706819 0.054966
0.177021 0.806111 0.055052
0.194561 0.929074 0.055111
0.403570 0.977260 0.054967
1.000000 0.990233 0.055002
0.000000 0.130078 0.054694
0.034187 0.141129 0.055003
0.058872 0.159413 0.055087
0.070930 0.194505 0.055099
0.087560 0.230155 0.055079
0.106005 0.256294 0.055033
0.117460 0.277686 0.055016
0.118984 0.298654 0.055025
0.113378 0.323843 0.054996
0.105300 0.360104 0.055039
0.099466 0.410759 0.054956
0.097174 0.480658 0.054993
0.099232 0.554593 0.055091
0.103052 0.653793 0.054737
0.111774 0.796145 0.055084
0.170608 0.838873 0.054852
0.159407 0.941150 0.055108
0.418293 0.985254 0.054994
1.000000 0.993740 0.055037
0.000000 0.478578 0.055044
0.006979 0.459647 0.054970
0.014730 0.418598 0.055002
0.022723 0.403337 0.055023
0.030945 0.398114 0.055048
0.038282 0.414384 0.055042
0.045041 0.438815 0.055029
0.049848 0.478641 0.054982
0.054446 0.523782 0.054994
0.059068 0.570707 0.055120
0.063342 0.625782 0.055105
0.068313 0.684803 0.055127
0.074898 0.741429 0.055151
0.085051 0.794112 0.054683
0.097370 0.880063 0.055049
0.134578 0.888049 0.054934
0.141110 0.965816 0.054897
0.459509 0.993024 0.055014
1.000000 0.997808 0.054933
0.000000 1.000000 0.054787
0.002193 1.000000 0.054963
0.006297 1.000000 0.055081
0.009845 1.000000 0.055104
0.013098 1.000000 0.055109
0.015790 1.000000 0.055093
0.018914 1.000000 0.054968
0.022054 1.000000 0.055005
0.025905 1.000000 0.055003
0.030531 1.000000 0.054961
0.036210 1.000000 0.054774
0.042911 1.000000 0.054706
0.050917 1.000000 0.054739
0.061604 1.000000 0.055119
0.076175 1.000000 0.054992
0.097106 1.000000 0.055743
0.130065 1.000000 0.054757
0.478506 1.000000 0.054993
1.000000 1.000000 0.054817
0.000000 0.000000 0.110147
0.520884 0.000000 0.110052
0.871535 0.000000 0.110542
0.904141 0.000000 0.108858
0.925072 0.000000 0.109902
0.938182 0.000000 0.109052
0.948102 0.000000 0.110154
0.956357 0.000000 0.110356
0.963259 0.000000 0.110228
0.969096 0.000000 0.110088
0.973824 0.000000 0.110210
0.977728 0.000000 0.110116
0.980892 0.000000 0.110084
0.984026 0.000000 0.110148
0.986780 0.000000 0.110102
0.990080 0.000000 0.110224
0.993633 0.000000 0.110282