# vtk DataFile Version 2.0
Mesh for Fierro
ASCII 
DATASET UNSTRUCTURED_GRID

POINTS 2527 float
0.000000 0.000000 0.000000
0.134666 0.000000 0.000000
0.259612 0.000000 0.000000
0.371688 0.000000 0.000000
0.466809 0.000000 0.000000
0.545649 0.000000 0.000000
0.611546 0.000000 0.000000
0.668500 0.000000 0.000000
0.717725 0.000000 0.000000
0.759154 0.000000 0.000000
0.795284 0.000000 0.000000
0.827247 0.000000 0.000000
0.856098 0.000000 0.000000
0.883518 0.000000 0.000000
0.908913 0.000000 0.000000
0.932674 0.000000 0.000000
0.955801 0.000000 0.000000
0.977702 0.000000 0.000000
1.000000 0.000000 0.000000
0.000000 0.022297 0.000000
0.133894 0.023327 0.000000
0.258324 0.025696 0.000000
0.369717 0.030307 0.000000
0.464234 0.035799 0.000000
0.542854 0.043231 0.000000
0.608653 0.050811 0.000000
0.664771 0.059835 0.000000
0.713382 0.069454 0.000000
0.754418 0.079023 0.000000
0.790268 0.088368 0.000000
0.822331 0.097843 0.000000
0.850963 0.107097 0.000000
0.878659 0.114919 0.000000
0.904234 0.121597 0.000000
0.929211 0.127258 0.000000
0.952872 0.130981 0.000000
0.976672 0.133894 0.000000
1.000000 0.134666 0.000000
0.000000 0.044199 0.000000
0.130981 0.047128 0.000000
0.253171 0.051752 0.000000
0.362560 0.060524 0.000000
0.455546 0.071201 0.000000
0.533389 0.085308 0.000000
0.598574 0.099885 0.000000
0.653681 0.117167 0.000000
0.701438 0.135585 0.000000
0.742353 0.153809 0.000000
0.778133 0.172541 0.000000
0.810502 0.190057 0.000000
0.839797 0.207965 0.000000
0.868096 0.222989 0.000000
0.895602 0.235480 0.000000
0.922305 0.245943 0.000000
0.948248 0.253171 0.000000
0.974304 0.258324 0.000000
1.000000 0.259612 0.000000
0.000000 0.067326 0.000000
0.127258 0.070789 0.000000
0.245943 0.077695 0.000000
0.352337 0.090870 0.000000
0.443012 0.105840 0.000000
0.518770 0.125606 0.000000
0.582763 0.146650 0.000000
0.635802 0.171085 0.000000
0.682107 0.197679 0.000000
0.721712 0.223083 0.000000
0.756835 0.249603 0.000000
0.789942 0.274180 0.000000
0.819869 0.299095 0.000000
0.849505 0.319819 0.000000
0.878951 0.337503 0.000000
0.909130 0.352337 0.000000
0.939476 0.362560 0.000000
0.969693 0.369717 0.000000
1.000000 0.371688 0.000000
0.000000 0.091087 0.000000
0.121597 0.095766 0.000000
0.235480 0.104398 0.000000
0.337503 0.121049 0.000000
0.425569 0.140231 0.000000
0.498573 0.164393 0.000000
0.560870 0.190988 0.000000
0.611927 0.221195 0.000000
0.656427 0.254148 0.000000
0.695086 0.286582 0.000000
0.730344 0.318157 0.000000
0.763956 0.348049 0.000000
0.794935 0.378841 0.000000
0.827254 0.404227 0.000000
0.859769 0.425569 0.000000
0.894160 0.443012 0.000000
0.928799 0.455546 0.000000
0.964200 0.464234 0.000000
1.000000 0.466809 0.000000
0.000000 0.116481 0.000000
0.114919 0.121341 0.000000
0.222989 0.131904 0.000000
0.319819 0.150495 0.000000
0.404227 0.172746 0.000000
0.473801 0.201430 0.000000
0.534606 0.232287 0.000000
0.583162 0.267638 0.000000
0.624491 0.305413 0.000000
0.662575 0.342052 0.000000
0.697000 0.379075 0.000000
0.730658 0.412191 0.000000
0.762795 0.445327 0.000000
0.798570 0.473801 0.000000
0.835607 0.498573 0.000000
0.874394 0.518770 0.000000
0.914692 0.533389 0.000000
0.956768 0.542854 0.000000
1.000000 0.545649 0.000000
0.000000 0.143902 0.000000
0.107097 0.149037 0.000000
0.207965 0.160203 0.000000
0.299095 0.180131 0.000000
0.378841 0.205065 0.000000
0.445327 0.237205 0.000000
0.504563 0.271741 0.000000
0.549917 0.310819 0.000000
0.588740 0.352680 0.000000
0.626085 0.392298 0.000000
0.659715 0.432866 0.000000
0.694214 0.469706 0.000000
0.728259 0.504563 0.000000
0.767713 0.534606 0.000000
0.809012 0.560870 0.000000
0.853350 0.582763 0.000000
0.900115 0.598574 0.000000
0.949189 0.608653 0.000000
1.000000 0.611546 0.000000
0.000000 0.172753 0.000000
0.097843 0.177669 0.000000
0.190057 0.189498 0.000000
0.274180 0.210058 0.000000
0.348049 0.236044 0.000000
0.412191 0.269342 0.000000
0.469706 0.305786 0.000000
0.512182 0.345960 0.000000
0.549412 0.388377 0.000000
0.585382 0.430725 0.000000
0.618987 0.472541 0.000000
0.654040 0.512182 0.000000
0.689181 0.549917 0.000000
0.732362 0.583162 0.000000
0.778805 0.611927 0.000000
0.828915 0.635802 0.000000
0.882833 0.653681 0.000000
0.940164 0.664771 0.000000
1.000000 0.668500 0.000000
0.000000 0.204716 0.000000
0.088368 0.209732 0.000000
0.172541 0.221867 0.000000
0.249603 0.243165 0.000000
0.318157 0.269656 0.000000
0.379075 0.303000 0.000000
0.432866 0.340285 0.000000
0.472541 0.381013 0.000000
0.508935 0.423070 0.000000
0.543199 0.466076 0.000000
0.576930 0.508935 0.000000
0.611623 0.549412 0.000000
0.647320 0.588740 0.000000
0.694587 0.624491 0.000000
0.745852 0.656427 0.000000
0.802321 0.682107 0.000000
0.864415 0.701438 0.000000
0.930546 0.713382 0.000000
1.000000 0.717725 0.000000
0.000000 0.240846 0.000000
0.079023 0.245582 0.000000
0.153809 0.257647 0.000000
0.223083 0.278288 0.000000
0.286582 0.304914 0.000000
0.342052 0.337425 0.000000
0.392298 0.373915 0.000000
0.430725 0.414618 0.000000
0.466076 0.456801 0.000000
0.500000 0.500000 0.000000
0.533924 0.543199 0.000000
0.569275 0.585382 0.000000
0.607702 0.626085 0.000000
0.657948 0.662575 0.000000
0.713418 0.695086 0.000000
0.776917 0.721712 0.000000
0.846191 0.742353 0.000000
0.920976 0.754418 0.000000
1.000000 0.759154 0.000000
0.000000 0.282275 0.000000
0.069454 0.286618 0.000000
0.135585 0.298562 0.000000
0.197679 0.317893 0.000000
0.254148 0.343573 0.000000
0.305413 0.375509 0.000000
0.352680 0.411260 0.000000
0.388377 0.450588 0.000000
0.423070 0.491065 0.000000
0.456801 0.533924 0.000000
0.491065 0.576930 0.000000
0.527459 0.618987 0.000000
0.567134 0.659715 0.000000
0.620925 0.697000 0.000000
0.681843 0.730344 0.000000
0.750397 0.756835 0.000000
0.827459 0.778133 0.000000
0.911631 0.790268 0.000000
1.000000 0.795284 0.000000
0.000000 0.331500 0.000000
0.059835 0.335229 0.000000
0.117167 0.346319 0.000000
0.171085 0.364198 0.000000
0.221195 0.388073 0.000000
0.267638 0.416838 0.000000
0.310819 0.450083 0.000000
0.345960 0.487818 0.000000
0.381013 0.527459 0.000000
0.414618 0.569275 0.000000
0.450588 0.611623 0.000000
0.487818 0.654040 0.000000
0.530294 0.694214 0.000000
0.587809 0.730658 0.000000
0.651951 0.763956 0.000000
0.725820 0.789942 0.000000
0.809943 0.810502 0.000000
0.902156 0.822331 0.000000
1.000000 0.827247 0.000000
0.000000 0.388454 0.000000
0.050811 0.391347 0.000000
0.099885 0.401426 0.000000
0.146650 0.417237 0.000000
0.190988 0.439130 0.000000
0.232287 0.465394 0.000000
0.271741 0.495437 0.000000
0.305786 0.530294 0.000000
0.340285 0.567134 0.000000
0.373915 0.607702 0.000000
0.411260 0.647320 0.000000
0.450083 0.689181 0.000000
0.495437 0.728259 0.000000
0.554673 0.762795 0.000000
0.621159 0.794935 0.000000
0.700905 0.819869 0.000000
0.792035 0.839797 0.000000
0.892902 0.850963 0.000000
1.000000 0.856098 0.000000
0.000000 0.454351 0.000000
0.043231 0.457146 0.000000
0.085308 0.466611 0.000000
0.125606 0.481230 0.000000
0.164393 0.501427 0.000000
0.201430 0.526199 0.000000
0.237205 0.554673 0.000000
0.269342 0.587809 0.000000
0.303000 0.620925 0.000000
0.337425 0.657948 0.000000
0.375509 0.694587 0.000000
0.416838 0.732362 0.000000
0.465394 0.767713 0.000000
0.526199 0.798570 0.000000
0.595773 0.827254 0.000000
0.680181 0.849505 0.000000
0.777011 0.868096 0.000000
0.885080 0.878659 0.000000
1.000000 0.883518 0.000000
0.000000 0.533191 0.000000
0.035799 0.535766 0.000000
0.071201 0.544454 0.000000
0.105840 0.556987 0.000000
0.140231 0.574431 0.000000
0.172746 0.595773 0.000000
0.205065 0.621159 0.000000
0.236044 0.651951 0.000000
0.269656 0.681843 0.000000
0.304914 0.713418 0.000000
0.343573 0.745852 0.000000
0.388073 0.778805 0.000000
0.439130 0.809012 0.000000
0.501426 0.835607 0.000000
0.574431 0.859769 0.000000
0.662497 0.878951 0.000000
0.764520 0.895602 0.000000
0.878402 0.904234 0.000000
1.000000 0.908913 0.000000
0.000000 0.628312 0.000000
0.030307 0.630283 0.000000
0.060524 0.637440 0.000000
0.090870 0.647663 0.000000
0.121049 0.662497 0.000000
0.150495 0.680181 0.000000
0.180131 0.700905 0.000000
0.210058 0.725820 0.000000
0.243165 0.750397 0.000000
0.278288 0.776917 0.000000
0.317893 0.802321 0.000000
0.364198 0.828915 0.000000
0.417237 0.853350 0.000000
0.481230 0.874394 0.000000
0.556988 0.894160 0.000000
0.647663 0.909130 0.000000
0.754057 0.922305 0.000000
0.872741 0.929211 0.000000
1.000000 0.932674 0.000000
0.000000 0.740388 0.000000
0.025696 0.741676 0.000000
0.051752 0.746829 0.000000
0.077695 0.754057 0.000000
0.104398 0.764520 0.000000
0.131904 0.777011 0.000000
0.160203 0.792035 0.000000
0.189498 0.809943 0.000000
0.221867 0.827459 0.000000
0.257647 0.846191 0.000000
0.298562 0.864415 0.000000
0.346319 0.882833 0.000000
0.401426 0.900115 0.000000
0.466611 0.914692 0.000000
0.544454 0.928799 0.000000
0.637440 0.939476 0.000000
0.746829 0.948248 0.000000
0.869018 0.952872 0.000000
1.000000 0.955801 0.000000
0.000000 0.865333 0.000000
0.023327 0.866105 0.000000
0.047128 0.869018 0.000000
0.070789 0.872741 0.000000
0.095766 0.878402 0.000000
0.121341 0.885080 0.000000
0.149037 0.892902 0.000000
0.177669 0.902156 0.000000
0.209732 0.911631 0.000000
0.245582 0.920976 0.000000
0.286618 0.930546 0.000000
0.335229 0.940164 0.000000
0.391347 0.949189 0.000000
0.457146 0.956768 0.000000
0.535766 0.964200 0.000000
0.630283 0.969693 0.000000
0.741676 0.974304 0.000000
0.866105 0.976672 0.000000
1.000000 0.977702 0.000000
0.000000 1.000000 0.000000
0.022297 1.000000 0.000000
0.044199 1.000000 0.000000
0.067326 1.000000 0.000000
0.091087 1.000000 0.000000
0.116482 1.000000 0.000000
0.143902 1.000000 0.000000
0.172753 1.000000 0.000000
0.204716 1.000000 0.000000
0.240846 1.000000 0.000000
0.282275 1.000000 0.000000
0.331500 1.000000 0.000000
0.388454 1.000000 0.000000
0.454351 1.000000 0.000000
0.533191 1.000000 0.000000
0.628312 1.000000 0.000000
0.740388 1.000000 0.000000
0.865333 1.000000 0.000000
1.000000 1.000000 0.000000
0.000000 0.000000 0.055000
0.134666 0.000000 0.055000
0.259612 0.000000 0.055000
0.371688 0.000000 0.055000
0.466809 0.000000 0.055000
[...]
POINT_DATA 2527 
VECTORS pos float 
0.000000 0.000000 0.000000
0.134666 0.000000 0.000000
0.259612 0.000000 0.000000
0.371688 0.000000 0.000000
0.466809 0.000000 0.000000
0.545649 0.000000 0.000000
0.611546 0.000000 0.000000
0.668500 0.000000 0.000000
0.717725 0.000000 0.000000
0.759154 0.000000 0.000000
0.795284 0.000000 0.000000
0.827247 0.000000 0.000000
0.856098 0.000000 0.000000
0.883518 0.000000 0.000000
0.908913 0.000000 0.000000
0.932674 0.000000 0.000000
0.955801 0.000000 0.000000
0.977702 0.000000 0.000000
1.000000 0.000000 0.000000
0.000000 0.022297 0.000000
0.133894 0.023327 0.000000
0.258324 0.025696 0.000000
0.369717 0.030307 0.000000
0.464234 0.035799 0.000000
0.542854 0.043231 0.000000
0.608653 0.050811 0.000000
0.664771 0.059835 0.000000
0.713382 0.069454 0.000000
0.754418 0.079023 0.000000
0.790268 0.088368 0.000000
0.822331 0.097843 0.000000
0.850963 0.107097 0.000000
0.878659 0.114919 0.000000
0.904234 0.121597 0.000000
0.929211 0.127258 0.000000
0.952872 0.130981 0.000000
0.976672 0.133894 0.000000
1.000000 0.134666 0.000000
0.000000 0.044199 0.000000
0.130981 0.047128 0.000000
0.253171 0.051752 0.000000
0.362560 0.060524 0.000000
0.455546 0.071201 0.000000
0.533389 0.085308 0.000000
0.598574 0.099885 0.000000
0.653681 0.117167 0.000000
0.701438 0.135585 0.000000
0.742353 0.153809 0.000000
0.778133 0.172541 0.000000
0.810502 0.190057 0.000000
0.839797 0.207965 0.000000
0.868096 0.222989 0.000000
0.895602 0.235480 0.000000
0.922305 0.245943 0.000000
0.948248 0.253171 0.000000
0.974304 0.258324 0.000000
1.000000 0.259612 0.000000
0.000000 0.067326 0.000000
0.127258 0.070789 0.000000
0.245943 0.077695 0.000000
0.352337 0.090870 0.000000
0.443012 0.105840 0.000000
0.518770 0.125606 0.000000
0.582763 0.146650 0.000000
0.635802 0.171085 0.000000
0.682107 0.197679 0.000000
0.721712 0.223083 0.000000
0.756835 0.249603 0.000000
0.789942 0.274180 0.000000
0.819869 0.299095 0.000000
0.849505 0.319819 0.000000
0.878951 0.337503 0.000000
0.909130 0.352337 0.000000
0.939476 0.362560 0.000000
0.969693 0.369717 0.000000
1.000000 0.371688 0.000000
0.000000 0.091087 0.000000
0.121597 0.095766 0.000000
0.235480 0.104398 0.000000
0.337503 0.121049 0.000000
0.425569 0.140231 0.000000
0.498573 0.164393 0.000000
0.560870 0.190988 0.000000
0.611927 0.221195 0.000000
0.656427 0.254148 0.000000
0.695086 0.286582 0.000000
0.730344 0.318157 0.000000
0.763956 0.348049 0.000000
0.794935 0.378841 0.000000
0.827254 0.404227 0.000000
0.859769 0.425569 0.000000
0.894160 0.443012 0.000000
0.928799 0.455546 0.000000
0.964200 0.464234 0.000000
1.000000 0.466809 0.000000
0.000000 0.116481 0.000000
0.114919 0.121341 0.000000
0.222989 0.131904 0.000000
0.319819 0.150495 0.000000
0.404227 0.172746 0.000000
0.473801 0.201430 0.000000
0.534606 0.232287 0.000000
0.583162 0.267638 0.000000
0.624491 0.305413 0.000000
0.662575 0.342052 0.000000
0.697000 0.379075 0.000000
0.730658 0.412191 0.000000
0.762795 0.445327 0.000000
0.798570 0.473801 0.000000
0.835607 0.498573 0.000000
0.874394 0.518770 0.000000
0.914692 0.533389 0.000000
0.956768 0.542854 0.000000
1.000000 0.545649 0.000000
0.000000 0.143902 0.000000
0.107097 0.149037 0.000000
0.207965 0.160203 0.000000
0.299095 0.180131 0.000000
0.378841 0.205065 0.000000
0.445327 0.237205 0.000000
0.504563 0.271741 0.000000
0.549917 0.310819 0.000000
0.588740 0.352680 0.000000
0.626085 0.392298 0.000000
0.659715 0.432866 0.000000
0.694214 0.469706 0.000000
0.728259 0.504563 0.000000
0.767713 0.534606 0.000000
0.809012 0.560870 0.000000
0.853350 0.582763 0.000000
0.900115 0.598574 0.000000
0.949189 0.608653 0.000000
1.000000 0.611546 0.000000
0.000000 0.172753 0.000000
0.097843 0.177669 0.000000
0.190057 0.189498 0.000000
0.274180 0.210058 0.000000
0.348049 0.236044 0.000000
0.412191 0.269342 0.000000
0.469706 0.305786 0.000000
0.512182 0.345960 0.000000
0.549412 0.388377 0.000000
0.585382 0.430725 0.000000
0.618987 0.472541 0.000000
0.654040 0.512182 0.000000
0.689181 0.549917 0.000000
0.732362 0.583162 0.000000
0.778805 0.611927 0.000000
0.828915 0.635802 0.000000
0.882833 0.653681 0.000000
0.940164 0.664771 0.000000
1.000000 0.668500 0.000000
0.000000 0.204716 0.000000
0.088368 0.209732 0.000000
0.172541 0.221867 0.000000
0.249603 0.243165 0.000000
0.318157 0.269656 0.000000
0.379075 0.303000 0.000000
0.432866 0.340285 0.000000
0.472541 0.381013 0.000000
0.508935 0.423070 0.000000
0.543199 0.466076 0.000000
0.576930 0.508935 0.000000
0.611623 0.549412 0.000000
0.647320 0.588740 0.000000
0.694587 0.624491 0.000000
0.745852 0.656427 0.000000
0.802321 0.682107 0.000000
0.864415 0.701438 0.000000
0.930546 0.713382 0.000000
1.000000 0.717725 0.000000
0.000000 0.240846 0.000000
0.079023 0.245582 0.000000
0.153809 0.257647 0.000000
0.223083 0.278288 0.000000
0.286582 0.304914 0.000000
0.342052 0.337425 0.000000
0.392298 0.373915 0.000000
0.430725 0.414618 0.000000
0.466076 0.456801 0.000000
0.500000 0.500000 0.000000
0.533924 0.543199 0.000000
0.569275 0.585382 0.000000
0.607702 0.626085 0.000000
0.657948 0.662575 0.000000
0.713418 0.695086 0.000000
0.776917 0.721712 0.000000
0.846191 0.742353 0.000000
0.920976 0.754418 0.000000
1.000000 0.759154 0.000000
0.000000 0.282275 0.000000
0.069454 0.286618 0.000000
0.135585 0.298562 0.000000
0.197679 0.317893 0.000000
0.254148 0.343573 0.000000
0.305413 0.375509 0.000000
0.352680 0.411260 0.000000
0.388377 0.450588 0.000000
0.423070 0.491065 0.000000
0.456801 0.533924 0.000000
0.491065 0.576930 0.000000
0.527459 0.618987 0.000000
0.567134 0.659715 0.000000
0.620925 0.697000 0.000000
0.681843 0.730344 0.000000
0.750397 0.756835 0.000000
0.827459 0.778133 0.000000
0.911631 0.790268 0.000000
1.000000 0.795284 0.000000
0.000000 0.331500 0.000000
0.059835 0.335229 0.000000
0.117167 0.346319 0.000000
0.171085 0.364198 0.000000
0.221195 0.388073 0.000000
0.267638 0.416838 0.000000
0.310819 0.450083 0.000000
0.345960 0.487818 0.000000
0.381013 0.527459 0.000000
0.414618 0.569275 0.000000
0.450588 0.611623 0.000000
0.487818 0.654040 0.000000
0.530294 0.694214 0.000000
0.587809 0.730658 0.000000
0.651951 0.763956 0.000000
0.725820 0.789942 0.000000
0.809943 0.810502 0.000000
0.902156 0.822331 0.000000
1.000000 0.827247 0.000000
0.000000 0.388454 0.000000
0.050811 0.391347 0.000000
0.099885 0.401426 0.000000
0.146650 0.417237 0.000000
0.190988 0.439130 0.000000
0.232287 0.465394 0.000000
0.271741 0.495437 0.000000
0.305786 0.530294 0.000000
0.340285 0.567134 0.000000
0.373915 0.607702 0.000000
0.411260 0.647320 0.000000
0.450083 0.689181 0.000000
0.495437 0.728259 0.000000
0.554673 0.762795 0.000000
0.621159 0.794935 0.000000
0.700905 0.819869 0.000000
0.792035 0.839797 0.000000
0.892902 0.850963 0.000000
1.000000 0.856098 0.000000
0.000000 0.454351 0.000000
0.043231 0.457146 0.000000
0.085308 0.466611 0.000000
0.125606 0.481230 0.000000
0.164393 0.501427 0.000000
0.201430 0.526199 0.000000
0.237205 0.554673 0.000000
0.269342 0.587809 0.000000
0.303000 0.620925 0.000000
0.337425 0.657948 0.000000
0.375509 0.694587 0.000000
0.416838 0.732362 0.000000
0.465394 0.767713 0.000000
0.526199 0.798570 0.000000
0.595773 0.827254 0.000000
0.680181 0.849505 0.000000
0.777011 0.868096 0.000000
0.885080 0.878659 0.000000
1.000000 0.883518 0.000000
0.000000 0.533191 0.000000
0.035799 0.535766 0.000000
0.071201 0.544454 0.000000
0.105840 0.556987 0.000000
0.140231 0.574431 0.000000
0.172746 0.595773 0.000000
0.205065 0.621159 0.000000
0.236044 0.651951 0.000000
0.269656 0.681843 0.000000
0.304914 0.713418 0.000000
0.343573 0.745852 0.000000
0.388073 0.778805 0.000000
0.439130 0.809012 0.000000
0.501426 0.835607 0.000000
0.574431 0.859769 0.000000
0.662497 0.878951 0.000000
0.764520 0.895602 0.000000
0.878402 0.904234 0.000000
1.000000 0.908913 0.000000
0.000000 0.628312 0.000000
0.030307 0.630283 0.000000
0.060524 0.637440 0.000000
0.090870 0.647663 0.000000
0.121049 0.662497 0.000000
0.150495 0.680181 0.000000
0.180131 0.700905 0.000000
0.210058 0.725820 0.000000
0.243165 0.750397 0.000000
0.278288 0.776917 0.000000
0.317893 0.802321 0.000000
0.364198 0.828915 0.000000
0.417237 0.853350 0.000000
0.481230 0.874394 0.000000
0.556988 0.894160 0.000000
0.647663 0.909130 0.000000
0.754057 0.922305 0.000000
0.872741 0.929211 0.000000
1.000000 0.932674 0.000000
0.000000 0.740388 0.000000
0.025696 0.741676 0.000000
0.051752 0.746829 0.000000
0.077695 0.754057 0.000000
0.104398 0.764520 0.000000
0.131904 0.777011 0.000000
0.160203 0.792035 0.000000
0.189498 0.809943 0.000000
0.221867 0.827459 0.000000
0.257647 0.846191 0.000000
0.298562 0.864415 0.000000
0.346319 0.882833 0.000000
0.401426 0.900115 0.000000
0.466611 0.914692 0.000000
0.544454 0.928799 0.000000
0.637440 0.939476 0.000000
0.746829 0.948248 0.000000
0.869018 0.952872 0.000000
1.000000 0.955801 0.000000
0.000000 0.865333 0.000000
0.023327 0.866105 0.000000
0.047128 0.869018 0.000000
0.070789 0.872741 0.000000
0.095766 0.878402 0.000000
0.121341 0.885080 0.000000
0.149037 0.892902 0.000000
0.177669 0.902156 0.000000
0.209732 0.911631 0.000000
0.245582 0.920976 0.000000
0.286618 0.930546 0.000000
0.335229 0.940164 0.000000
0.391347 0.949189 0.000000
0.457146 0.956768 0.000000
0.535766 0.964200 0.000000
0.630283 0.969693 0.000000
0.741676 0.974304 0.000000
0.866105 0.976672 0.000000
1.000000 0.977702 0.000000
0.000000 1.000000 0.000000
0.022297 1.000000 0.000000
0.044199 1.000000 0.000000
0.067326 1.000000 0.000000
0.091087 1.000000 0.000000
0.116482 1.000000 0.000000
0.143902 1.000000 0.000000
0.172753 1.000000 0.000000
0.204716 1.000000 0.000000
0.240846 1.000000 0.000000
0.282275 1.000000 0.000000
0.331500 1.000000 0.000000
0.388454 1.000000 0.000000
0.454351 1.000000 0.000000
0.533191 1.000000 0.000000
0.628312 1.000000 0.000000
0.740388 1.000000 0.000000
0.865333 1.000000 0.000000
1.000000 1.000000 0.000000
0.000000 0.000000 0.055000
0.134666 0.000000 0.055000
0.259612 0.000000 0.055000
0.371688 0.000000 0.055000
0.466809 0.000000 0.055000
0.545649 0.000000 0.055000
0.611546 0.000000 0.055000
0.668500 0.000000 0.055000
0.717725 0.000000 0.055000
0.759154 0.000000 0.055000
0.795284 0.000000 0.055000
0.827247 0.000000 0.055000
0.856098 0.000000 0.055000
0.883518 0.000000 0.055000
0.908913 0.000000 0.055000
0.932674 0.000000 0.055000
0.955801 0.000000 0.055000
0.977702 0.000000 0.055000
1.000000 0.000000 0.055000
0.000000 0.022297 0.055000
0.133894 0.023327 0.055000
0.258324 0.025696 0.055000
0.369717 0.030307 0.055000
0.464234 0.035799 0.055000
0.542854 0.043231 0.055000
0.608653 0.050811 0.055000
0.664771 0.059835 0.055000
0.713382 0.069454 0.055000
0.754418 0.079023 0.055000
0.790268 0.088368 0.055000
0.822331 0.097843 0.055000
0.850963 0.107097 0.055000
0.878659 0.114919 0.055000
0.904234 0.121597 0.055000
0.929211 0.127258 0.055000
0.952872 0.130981 0.055000
0.976672 0.133894 0.055000
1.000000 0.134666 0.055000
0.000000 0.044199 0.055000
0.130981 0.047128 0.055000
0.253171 0.051752 0.055000
0.362560 0.060524 0.055000
0.455546 0.071201 0.055000
0.533389 0.085308 0.055000
0.598574 0.099885 0.055000
0.653681 0.117167 0.055000
0.701438 0.135585 0.055000
0.742353 0.153809 0.055000
0.778133 0.172541 0.055000
0.810502 0.190057 0.055000
0.839797 0.207965 0.055000
0.868096 0.222989 0.055000
0.895602 0.235480 0.055000
0.922305 0.245943 0.055000
0.948248 0.253171 0.055000
0.974304 0.258324 0.055000
1.000000 0.259612 0.055000
0.000000 0.067326 0.055000
0.127258 0.070789 0.055000
0.245943 0.077695 0.055000
0.352337 0.090870 0.055000
0.443012 0.105840 0.055000
0.518770 0.125606 0.055000
0.582763 0.146650 0.055000
0.635802 0.171085 0.055000
0.682107 0.197679 0.055000
0.721712 0.223083 0.055000
0.756835 0.249603 0.055000
0.789942 0.274180 0.055000
0.819869 0.299095 0.055000
0.849505 0.319819 0.055000
0.878951 0.337503 0.055000
0.909130 0.352337 0.055000
0.939476 0.362560 0.055000
0.969693 0.369717 0.055000
1.000000 0.371688 0.055000
0.000000 0.091087 0.055000
0.121597 0.095766 0.055000
0.235480 0.104398 0.055000
0.337503 0.121049 0.055000
0.425569 0.140231 0.055000
0.498573 0.164393 0.055000
0.560870 0.190988 0.055000
0.611927 0.221195 0.055000
0.656427 0.254148 0.055000
0.695086 0.286582 0.055000
0.730344 0.318157 0.055000
0.763956 0.348049 0.055000
0.794935 0.378841 0.055000
0.827254 0.404227 0.055000
0.859769 0.425569 0.055000
0.894160 0.443012 0.055000
0.928799 0.455546 0.055000
0.964200 0.464234 0.055000
1.000000 0.466809 0.055000
0.000000 0.116482 0.055000
0.114919 0.121341 0.055000
0.222989 0.131904 0.055000
0.319819 0.150495 0.055000
0.404227 0.172746 0.055000
0.473801 0.201430 0.055000
0.534606 0.232287 0.055000
0.583162 0.267638 0.055000
0.624491 0.305413 0.055000
0.662575 0.342052 0.055000
0.697000 0.379075 0.055000
0.730658 0.412191 0.055000
0.762795 0.445327 0.055000
0.798570 0.473801 0.055000
0.835607 0.498573 0.055000
0.874394 0.518770 0.055000
0.914692 0.533389 0.055000
0.956768 0.542854 0.055000
1.000000 0.545649 0.055000
0.000000 0.143902 0.055000
0.107097 0.149037 0.055000
0.207965 0.160203 0.055000
0.299095 0.180131 0.055000
0.378841 0.205065 0.055000
0.445327 0.237205 0.055000
0.504563 0.271741 0.055000
0.549917 0.310819 0.055000
0.588740 0.352680 0.055000
0.626085 0.392298 0.055000
0.659715 0.432866 0.055000
0.694214 0.469706 0.055000
0.728259 0.504563 0.055000
0.767713 0.534606 0.055000
0.809012 0.560870 0.055000
0.853350 0.582763 0.055000
0.900115 0.598574 0.055000
0.949189 0.608653 0.055000
1.000000 0.611546 0.055000
0.000000 0.172753 0.055000
0.097843 0.177669 0.055000
0.190057 0.189498 0.055000
0.274180 0.210058 0.055000
0.348049 0.236044 0.055000
0.412191 0.269342 0.055000
0.469706 0.305786 0.055000
0.512182 0.345960 0.055000
0.549412 0.388377 0.055000
0.585382 0.430725 0.055000
0.618987 0.472541 0.055000
0.654040 0.512182 0.055000
0.689181 0.549917 0.055000
0.732362 0.583162 0.055000
0.778805 0.611927 0.055000
0.828915 0.635802 0.055000
0.882833 0.653681 0.055000
0.940164 0.664771 0.055000
1.000000 0.668500 0.055000
0.000000 0.204716 0.055000
0.088368 0.209732 0.055000
0.172541 0.221867 0.055000
0.249603 0.243165 0.055000
0.318157 0.269656 0.055000
0.379075 0.303000 0.055000
0.432866 0.340285 0.055000
0.472541 0.381013 0.055000
0.508935 0.423070 0.055000
0.543199 0.466076 0.055000
0.576930 0.508935 0.055000
0.611623 0.549412 0.055000
0.647320 0.588740 0.055000
0.694587 0.624491 0.055000
0.745852 0.656427 0.055000
0.802321 0.682107 0.055000
0.864415 0.701438 0.055000
0.930546 0.713382 0.055000
1.000000 0.717725 0.055000
0.000000 0.240846 0.055000
0.079023 0.245582 0.055000
0.153809 0.257647 0.055000
0.223083 0.278288 0.055000
0.286582 0.304914 0.055000
0.342052 0.337425 0.055000
0.392298 0.373915 0.055000
0.430725 0.414618 0.055000
0.466076 0.456801 0.055000
0.500000 0.500000 0.055000
0.533924 0.543199 0.055000
0.569275 0.585382 0.055000
0.607702 0.626085 0.055000
0.657948 0.662575 0.055000
0.713418 0.695086 0.055000
0.776917 0.721712 0.055000
0.846191 0.742353 0.055000
0.920976 0.754418 0.055000
1.000000 0.759154 0.055000
0.000000 0.282275 0.055000
0.069454 0.286618 0.055000
0.135585 0.298562 0.055000
0.197679 0.317893 0.055000
0.254148 0.343573 0.055000
0.305413 0.375509 0.055000
0.352680 0.411260 0.055000
0.388377 0.450588 0.055000
0.423070 0.491065 0.055000
0.456801 0.533924 0.055000
0.491065 0.576930 0.055000
0.527459 0.618987 0.055000
0.567134 0.659715 0.055000
0.620925 0.697000 0.055000
0.681843 0.730344 0.055000
0.750397 0.756835 0.055000
0.827459 0.778133 0.055000
0.911631 0.790268 0.055000
1.000000 0.795284 0.055000
0.000000 0.331500 0.055000
0.059835 0.335229 0.055000
0.117167 0.346319 0.055000
0.171085 0.364198 0.055000
0.221195 0.388073 0.055000
0.267638 0.416838 0.055000
0.310819 0.450083 0.055000
0.345960 0.487818 0.055000
0.381013 0.527459 0.055000
0.414618 0.569275 0.055000
0.450588 0.611623 0.055000
0.487818 0.654040 0.055000
0.530294 0.694214 0.055000
0.587809 0.730658 0.055000
0.651951 0.763956 0.055000
0.725820 0.789942 0.055000
0.809943 0.810502 0.055000
0.902156 0.822331 0.055000
1.000000 0.827247 0.055000
0.000000 0.388454 0.055000
0.050811 0.391347 0.055000
0.099885 0.401426 0.055000
0.146650 0.417237 0.055000
0.190988 0.439130 0.055000
0.232287 0.465394 0.055000
0.271741 0.495437 0.055000
0.305786 0.530294 0.055000
0.340285 0.567134 0.055000
0.373915 0.607702 0.055000
0.411260 0.647320 0.055000
0.450083 0.689181 0.055000
0.495437 0.728259 0.055000
0.554673 0.762795 0.055000
0.621159 0.794935 0.055000
0.700905 0.819869 0.055000
0.792035 0.839797 0.055000
0.892902 0.850963 0.055000
1.000000 0.856098 0.055000
0.000000 0.454351 0.055000
0.043231 0.457146 0.055000
0.085308 0.466611 0.055000
0.125606 0.481230 0.055000
0.164393 0.501427 0.055000
0.201430 0.526199 0.055000
0.237205 0.554673 0.055000
0.269342 0.587809 0.055000
0.303000 0.620925 0.055000
0.337425 0.657948 0.055000
0.375509 0.694587 0.055000
0.416838 0.732362 0.055000
0.465394 0.767713 0.055000
0.526199 0.798570 0.055000
0.595773 0.827254 0.055000
0.680181 0.849505 0.055000
0.777011 0.868096 0.055000
0.885080 0.878659 0.055000
1.000000 0.883518 0.055000
0.000000 0.533191 0.055000
0.035799 0.535766 0.055000
0.071201 0.544454 0.055000
0.105840 0.556987 0.055000
0.140231 0.574431 0.055000
0.172746 0.595773 0.055000
0.205065 0.621159 0.055000
0.236044 0.651951 0.055000
0.269656 0.681843 0.055000
0.304914 0.713418 0.055000
0.343573 0.745852 0.055000
0.388073 0.778805 0.055000
0.439130 0.809012 0.055000
0.501427 0.835607 0.055000
0.574431 0.859769 0.055000
0.662497 0.878951 0.055000
0.764520 0.895602 0.055000
0.878402 0.904234 0.055000
1.000000 0.908913 0.055000
0.000000 0.628312 0.055000
0.030307 0.630283 0.055000
0.060524 0.637440 0.055000
0.090870 0.647663 0.055000
0.121049 0.662497 0.055000
0.150495 0.680181 0.055000
0.180131 0.700905 0.055000
0.210058 0.725820 0.055000
0.243165 0.750397 0.055000
0.278288 0.776917 0.055000
0.317893 0.802321 0.055000
0.364198 0.828915 0.055000
0.417237 0.853350 0.055000
0.481230 0.874394 0.055000
0.556988 0.894160 0.055000
0.647663 0.909130 0.055000
0.754057 0.922305 0.055000
0.872741 0.929211 0.055000
1.000000 0.932674 0.055000
0.000000 0.740388 0.055000
0.025696 0.741676 0.055000
0.051752 0.746829 0.055000
0.077695 0.754057 0.055000
0.104398 0.764520 0.055000
0.131904 0.777011 0.055000
0.160203 0.792035 0.055000
0.189498 0.809943 0.055000
0.221867 0.827459 0.055000
0.257647 0.846191 0.055000
0.298562 0.864415 0.055000
0.346319 0.882833 0.055000
0.401426 0.900115 0.055000
0.466611 0.914692 0.055000
0.544454 0.928799 0.055000
0.637440 0.939476 0.055000
0.746829 0.948248 0.055000
0.869018 0.952872 0.055000
1.000000 0.955801 0.055000
0.000000 0.865333 0.055000
0.023327 0.866105 0.055000
0.047128 0.869018 0.055000
0.070789 0.872741 0.055000
0.095766 0.878402 0.055000
0.121341 0.885080 0.055000
0.149037 0.892902 0.055000
0.177669 0.902156 0.055000
0.209732 0.911631 0.055000
0.245582 0.920976 0.055000
0.286618 0.930546 0.055000
0.335229 0.940164 0.055000
0.391347 0.949189 0.055000
0.457146 0.956768 0.055000
0.535766 0.964200 0.055000
0.630283 0.969693 0.055000
0.741676 0.974304 0.055000
0.866105 0.976672 0.055000
1.000000 0.977702 0.055000
0.000000 1.000000 0.055000
0.022297 1.000000 0.055000
0.044199 1.000000 0.055000
0.067326 1.000000 0.055000
0.091087 1.000000 0.055000
0.116482 1.000000 0.055000
0.143902 1.000000 0.055000
0.172753 1.000000 0.055000
0.204716 1.000000 0.055000
0.240846 1.000000 0.055000
0.282275 1.000000 0.055000
0.331500 1.000000 0.055000
0.388454 1.000000 0.055000
0.454351 1.000000 0.055000
0.533191 1.000000 0.055000
0.628312 1.000000 0.055000
0.740388 1.000000 0.055000
0.865333 1.000000 0.055000
1.000000 1.000000 0.055000
0.000000 0.000000 0.110000
0.134666 0.000000 0.110000
0.259612 0.000000 0.110000
0.371688 0.000000 0.110000
0.466809 0.000000 0.110000
0.545649 0.000000 0.110000
0.611546 0.000000 0.110000
0.668500 0.000000 0.110000
0.717725 0.000000 0.110000
0.759154 0.000000 0.110000
0.795284 0.000000 0.110000
0.827247 0.000000 0.110000
0.856098 0.000000 0.110000
0.883518 0.000000 0.110000
0.908913 0.000000 0.110000
0.932674 0.000000 0.110000
0.955801 0.000000 0.110000