# vtk DataFile Version 2.0
Mesh for Fierro
ASCII 
DATASET UNSTRUCTURED_GRID

POINTS 2527 float
0.000000 0.000000 0.000000
0.138836 0.000000 0.000000
0.267001 0.000000 0.000000
0.380840 0.000000 0.000000
0.476751 0.000000 0.000000
0.555332 0.000000 0.000000
0.620539 0.000000 0.000000
0.676994 0.000000 0.000000
0.725425 0.000000 0.000000
0.766021 0.000000 0.000000
0.801347 0.000000 0.000000
0.832377 0.000000 0.000000
0.861114 0.000000 0.000000
0.887263 0.000000 0.000000
0.912225 0.000000 0.000000
0.934894 0.000000 0.000000
0.957402 0.000000 0.000000
0.978484 0.000000 0.000000
1.000000 0.000000 0.000000
0.000000 0.021515 0.000000
0.138065 0.022821 0.000000
0.265578 0.025130 0.000000
0.378829 0.029950 0.000000
0.474059 0.035690 0.000000
0.552457 0.043373 0.000000
0.617627 0.051326 0.000000
0.673147 0.060784 0.000000
0.720909 0.070865 0.000000
0.761091 0.080882 0.000000
0.796076 0.090650 0.000000
0.827175 0.100516 0.000000
0.855559 0.110211 0.000000
0.882283 0.118332 0.000000
0.907219 0.125314 0.000000
0.931200 0.131158 0.000000
0.954489 0.135033 0.000000
0.977178 0.138065 0.000000
1.000000 0.138837 0.000000
0.000000 0.042598 0.000000
0.135032 0.045511 0.000000
0.260287 0.050797 0.000000
0.371365 0.059842 0.000000
0.465150 0.070809 0.000000
0.542775 0.085574 0.000000
0.607324 0.100832 0.000000
0.661911 0.118885 0.000000
0.708730 0.138061 0.000000
0.748827 0.157105 0.000000
0.783636 0.176614 0.000000
0.815089 0.194846 0.000000
0.843536 0.213450 0.000000
0.871501 0.229049 0.000000
0.898090 0.241990 0.000000
0.924216 0.252874 0.000000
0.949203 0.260287 0.000000
0.974870 0.265578 0.000000
1.000000 0.267000 0.000000
0.000000 0.065106 0.000000
0.131158 0.068800 0.000000
0.252875 0.075784 0.000000
0.360864 0.089629 0.000000
0.452266 0.105295 0.000000
0.527833 0.125930 0.000000
0.591101 0.147859 0.000000
0.643510 0.173234 0.000000
0.688837 0.200814 0.000000
0.727537 0.227192 0.000000
0.761634 0.254668 0.000000
0.793849 0.280161 0.000000
0.822824 0.305985 0.000000
0.851840 0.327383 0.000000
0.880824 0.345608 0.000000
0.910371 0.360864 0.000000
0.940158 0.371365 0.000000
0.970050 0.378829 0.000000
1.000000 0.380840 0.000000
0.000000 0.087775 0.000000
0.125314 0.092781 0.000000
0.241990 0.101910 0.000000
0.345608 0.119176 0.000000
0.434401 0.139381 0.000000
0.507125 0.164579 0.000000
0.568706 0.192131 0.000000
0.619045 0.223407 0.000000
0.662555 0.257570 0.000000
0.700133 0.291113 0.000000
0.734400 0.323772 0.000000
0.767051 0.354634 0.000000
0.797071 0.386415 0.000000
0.828605 0.412499 0.000000
0.860619 0.434401 0.000000
0.894705 0.452267 0.000000
0.929191 0.465150 0.000000
0.964310 0.474059 0.000000
1.000000 0.476751 0.000000
0.000000 0.112737 0.000000
0.118332 0.117717 0.000000
0.229049 0.128499 0.000000
0.327383 0.148161 0.000000
0.412499 0.171395 0.000000
0.481736 0.201121 0.000000
0.541817 0.233045 0.000000
0.589436 0.269544 0.000000
0.629720 0.308581 0.000000
0.666666 0.346350 0.000000
0.699969 0.384499 0.000000
0.732664 0.418559 0.000000
0.763827 0.452589 0.000000
0.798879 0.481736 0.000000
0.835421 0.507126 0.000000
0.874070 0.527833 0.000000
0.914426 0.542776 0.000000
0.956626 0.552457 0.000000
1.000000 0.555332 0.000000
0.000000 0.138887 0.000000
0.110211 0.144441 0.000000
0.213451 0.156464 0.000000
0.305985 0.177176 0.000000
0.386415 0.202929 0.000000
0.452588 0.236173 0.000000
0.511168 0.271896 0.000000
0.555422 0.312162 0.000000
0.593007 0.355318 0.000000
0.629253 0.396079 0.000000
0.661596 0.437783 0.000000
0.695078 0.475490 0.000000
0.728104 0.511168 0.000000
0.766955 0.541817 0.000000
0.807869 0.568706 0.000000
0.852140 0.591101 0.000000
0.899168 0.607324 0.000000
0.948673 0.617627 0.000000
1.000000 0.620539 0.000000
0.000000 0.167622 0.000000
0.100516 0.172825 0.000000
0.194846 0.184911 0.000000
0.280161 0.206151 0.000000
0.354634 0.232949 0.000000
0.418559 0.267336 0.000000
0.475490 0.304922 0.000000
0.516834 0.346196 0.000000
0.552761 0.389813 0.000000
0.587544 0.433340 0.000000
0.619870 0.476259 0.000000
0.653804 0.516834 0.000000
0.687838 0.555422 0.000000
0.730456 0.589436 0.000000
0.776593 0.619045 0.000000
0.826766 0.643510 0.000000
0.881115 0.661911 0.000000
0.939215 0.673147 0.000000
1.000000 0.676995 0.000000
0.000000 0.198653 0.000000
0.090650 0.203923 0.000000
0.176614 0.216364 0.000000
0.254668 0.238366 0.000000
0.323772 0.265600 0.000000
0.384499 0.300031 0.000000
0.437783 0.338404 0.000000
0.476259 0.380130 0.000000
0.511351 0.423258 0.000000
0.544328 0.467409 0.000000
0.576741 0.511351 0.000000
0.610187 0.552761 0.000000
0.644682 0.593007 0.000000
0.691419 0.629720 0.000000
0.742430 0.662555 0.000000
0.799186 0.688837 0.000000
0.861939 0.708730 0.000000
0.929134 0.720909 0.000000
1.000000 0.725425 0.000000
0.000000 0.233978 0.000000
0.080882 0.238909 0.000000
0.157105 0.251173 0.000000
0.227192 0.272463 0.000000
0.291113 0.299867 0.000000
0.346350 0.333334 0.000000
0.396079 0.370747 0.000000
0.433340 0.412456 0.000000
0.467408 0.455672 0.000000
0.500000 0.500000 0.000000
0.532592 0.544328 0.000000
0.566660 0.587544 0.000000
0.603921 0.629253 0.000000
0.653650 0.666666 0.000000
0.708887 0.700132 0.000000
0.772808 0.727537 0.000000
0.842895 0.748827 0.000000
0.919117 0.761091 0.000000
1.000000 0.766022 0.000000
0.000000 0.274575 0.000000
0.070865 0.279091 0.000000
0.138061 0.291270 0.000000
0.200814 0.311163 0.000000
0.257570 0.337445 0.000000
0.308581 0.370280 0.000000
0.355318 0.406993 0.000000
0.389813 0.447239 0.000000
0.423258 0.488649 0.000000
0.455672 0.532591 0.000000
0.488649 0.576742 0.000000
0.523741 0.619870 0.000000
0.562217 0.661596 0.000000
0.615501 0.699969 0.000000
0.676228 0.734400 0.000000
0.745332 0.761634 0.000000
0.823386 0.783636 0.000000
0.909349 0.796076 0.000000
1.000000 0.801346 0.000000
0.000000 0.323006 0.000000
0.060784 0.326853 0.000000
0.118885 0.338089 0.000000
0.173234 0.356490 0.000000
0.223407 0.380955 0.000000
0.269544 0.410564 0.000000
0.312162 0.444578 0.000000
0.346196 0.483166 0.000000
0.380130 0.523741 0.000000
0.412456 0.566660 0.000000
0.447239 0.610187 0.000000
0.483166 0.653804 0.000000
0.524510 0.695078 0.000000
0.581441 0.732664 0.000000
0.645366 0.767051 0.000000
0.719839 0.793849 0.000000
0.805154 0.815089 0.000000
0.899484 0.827176 0.000000
1.000000 0.832379 0.000000
0.000000 0.379461 0.000000
0.051326 0.382373 0.000000
0.100832 0.392676 0.000000
0.147860 0.408899 0.000000
0.192131 0.431293 0.000000
0.233045 0.458183 0.000000
0.271896 0.488832 0.000000
0.304922 0.524510 0.000000
0.338404 0.562217 0.000000
0.370747 0.603921 0.000000
0.406993 0.644682 0.000000
0.444578 0.687838 0.000000
0.488832 0.728104 0.000000
0.547412 0.763827 0.000000
0.613584 0.797071 0.000000
0.694015 0.822824 0.000000
0.786549 0.843537 0.000000
0.889790 0.855558 0.000000
1.000000 0.861111 0.000000
0.000000 0.444668 0.000000
0.043373 0.447543 0.000000
0.085574 0.457224 0.000000
0.125930 0.472167 0.000000
0.164579 0.492875 0.000000
0.201121 0.518263 0.000000
0.236173 0.547412 0.000000
0.267336 0.581441 0.000000
0.300031 0.615501 0.000000
0.333334 0.653650 0.000000
0.370280 0.691419 0.000000
0.410564 0.730456 0.000000
0.458183 0.766955 0.000000
0.518264 0.798879 0.000000
0.587501 0.828605 0.000000
0.672617 0.851839 0.000000
0.770951 0.871501 0.000000
0.881667 0.882283 0.000000
1.000000 0.887263 0.000000
0.000000 0.523249 0.000000
0.035690 0.525941 0.000000
0.070809 0.534850 0.000000
0.105296 0.547734 0.000000
0.139381 0.565599 0.000000
0.171395 0.587501 0.000000
0.202929 0.613585 0.000000
0.232949 0.645366 0.000000
0.265600 0.676228 0.000000
0.299868 0.708887 0.000000
0.337445 0.742430 0.000000
0.380955 0.776593 0.000000
0.431294 0.807869 0.000000
0.492874 0.835421 0.000000
0.565599 0.860619 0.000000
0.654392 0.880825 0.000000
0.758010 0.898090 0.000000
0.874686 0.907218 0.000000
1.000000 0.912225 0.000000
0.000000 0.619160 0.000000
0.029950 0.621171 0.000000
0.059842 0.628635 0.000000
0.089629 0.639136 0.000000
0.119176 0.654392 0.000000
0.148160 0.672617 0.000000
0.177176 0.694015 0.000000
0.206151 0.719839 0.000000
0.238366 0.745332 0.000000
0.272463 0.772808 0.000000
0.311163 0.799186 0.000000
0.356490 0.826766 0.000000
0.408899 0.852140 0.000000
0.472167 0.874070 0.000000
0.547734 0.894705 0.000000
0.639136 0.910371 0.000000
0.747126 0.924216 0.000000
0.868841 0.931200 0.000000
1.000000 0.934893 0.000000
0.000000 0.733000 0.000000
0.025130 0.734422 0.000000
0.050797 0.739714 0.000000
0.075784 0.747126 0.000000
0.101910 0.758010 0.000000
0.128499 0.770951 0.000000
0.156464 0.786550 0.000000
0.184911 0.805154 0.000000
0.216364 0.823386 0.000000
0.251173 0.842895 0.000000
0.291270 0.861939 0.000000
0.338089 0.881115 0.000000
0.392676 0.899168 0.000000
0.457224 0.914426 0.000000
0.534850 0.929191 0.000000
0.628635 0.940158 0.000000
0.739714 0.949203 0.000000
0.864965 0.954489 0.000000
1.000000 0.957403 0.000000
0.000000 0.861162 0.000000
0.022821 0.861934 0.000000
0.045511 0.864965 0.000000
0.068800 0.868841 0.000000
0.092782 0.874685 0.000000
0.117717 0.881667 0.000000
0.144441 0.889787 0.000000
0.172825 0.899484 0.000000
0.203924 0.909349 0.000000
0.238909 0.919117 0.000000
0.279091 0.929134 0.000000
0.326853 0.939215 0.000000
0.382373 0.948673 0.000000
0.447543 0.956626 0.000000
0.525941 0.964310 0.000000
0.621171 0.970050 0.000000
0.734422 0.974870 0.000000
0.861934 0.977178 0.000000
1.000000 0.978484 0.000000
0.000000 1.000000 0.000000
0.021515 1.000000 0.000000
0.042596 1.000000 0.000000
0.065108 1.000000 0.000000
0.087775 1.000000 0.000000
0.112738 1.000000 0.000000
0.138889 1.000000 0.000000
0.167620 1.000000 0.000000
0.198654 1.000000 0.000000
0.233978 1.000000 0.000000
0.274575 1.000000 0.000000
0.323005 1.000000 0.000000
0.379461 1.000000 0.000000
0.444668 1.000000 0.000000
0.523249 1.000000 0.000000
0.619160 1.000000 0.000000
0.733000 1.000000 0.000000
0.861161 1.000000 0.000000
1.000000 1.000000 0.000000
0.000000 0.000000 0.055000
0.138837 0.000000 0.055000
0.267001 0.000000 0.055000
0.380840 0.000000 0.055000
0.476751 0.000000 0.055000
[...]
POINT_DATA 2527 
VECTORS pos float 
0.000000 0.000000 0.000000
0.138836 0.000000 0.000000
0.267001 0.000000 0.000000
0.380840 0.000000 0.000000
0.476751 0.000000 0.000000
0.555332 0.000000 0.000000
0.620539 0.000000 0.000000
0.676994 0.000000 0.000000
0.725425 0.000000 0.000000
0.766021 0.000000 0.000000
0.801347 0.000000 0.000000
0.832377 0.000000 0.000000
0.861114 0.000000 0.000000
0.887263 0.000000 0.000000
0.912225 0.000000 0.000000
0.934894 0.000000 0.000000
0.957402 0.000000 0.000000
0.978484 0.000000 0.000000
1.000000 0.000000 0.000000
0.000000 0.021515 0.000000
0.138065 0.022821 0.000000
0.265578 0.025130 0.000000
0.378829 0.029950 0.000000
0.474059 0.035690 0.000000
0.552457 0.043373 0.000000
0.617627 0.051326 0.000000
0.673147 0.060784 0.000000
0.720909 0.070865 0.000000
0.761091 0.080882 0.000000
0.796076 0.090650 0.000000
0.827175 0.100516 0.000000
0.855559 0.110211 0.000000
0.882283 0.118332 0.000000
0.907219 0.125314 0.000000
0.931200 0.131158 0.000000
0.954489 0.135033 0.000000
0.977178 0.138065 0.000000
1.000000 0.138837 0.000000
0.000000 0.042598 0.000000
0.135032 0.045511 0.000000
0.260287 0.050797 0.000000
0.371365 0.059842 0.000000
0.465150 0.070809 0.000000
0.542775 0.085574 0.000000
0.607324 0.100832 0.000000
0.661911 0.118885 0.000000
0.708730 0.138061 0.000000
0.748827 0.157105 0.000000
0.783636 0.176614 0.000000
0.815089 0.194846 0.000000
0.843536 0.213450 0.000000
0.871501 0.229049 0.000000
0.898090 0.241990 0.000000
0.924216 0.252874 0.000000
0.949203 0.260287 0.000000
0.974870 0.265578 0.000000
1.000000 0.267000 0.000000
0.000000 0.065106 0.000000
0.131158 0.068800 0.000000
0.252875 0.075784 0.000000
0.360864 0.089629 0.000000
0.452266 0.105295 0.000000
0.527833 0.125930 0.000000
0.591101 0.147859 0.000000
0.643510 0.173234 0.000000
0.688837 0.200814 0.000000
0.727537 0.227192 0.000000
0.761634 0.254668 0.000000
0.793849 0.280161 0.000000
0.822824 0.305985 0.000000
0.851840 0.327383 0.000000
0.880824 0.345608 0.000000
0.910371 0.360864 0.000000
0.940158 0.371365 0.000000
0.970050 0.378829 0.000000
1.000000 0.380840 0.000000
0.000000 0.087775 0.000000
0.125314 0.092781 0.000000
0.241990 0.101910 0.000000
0.345608 0.119176 0.000000
0.434401 0.139381 0.000000
0.507125 0.164579 0.000000
0.568706 0.192131 0.000000
0.619045 0.223407 0.000000
0.662555 0.257570 0.000000
0.700133 0.291113 0.000000
0.734400 0.323772 0.000000
0.767051 0.354634 0.000000
0.797071 0.386415 0.000000
0.828605 0.412499 0.000000
0.860619 0.434401 0.000000
0.894705 0.452267 0.000000
0.929191 0.465150 0.000000
0.964310 0.474059 0.000000
1.000000 0.476751 0.000000
0.000000 0.112737 0.000000
0.118332 0.117717 0.000000
0.229049 0.128499 0.000000
0.327383 0.148161 0.000000
0.412499 0.171395 0.000000
0.481736 0.201121 0.000000
0.541817 0.233045 0.000000
0.589436 0.269544 0.000000
0.629720 0.308581 0.000000
0.666666 0.346350 0.000000
0.699969 0.384499 0.000000
0.732664 0.418559 0.000000
0.763827 0.452589 0.000000
0.798879 0.481736 0.000000
0.835421 0.507126 0.000000
0.874070 0.527833 0.000000
0.914426 0.542776 0.000000
0.956626 0.552457 0.000000
1.000000 0.555332 0.000000
0.000000 0.138887 0.000000
0.110211 0.144441 0.000000
0.213451 0.156464 0.000000
0.305985 0.177176 0.000000
0.386415 0.202929 0.000000
0.452588 0.236173 0.000000
0.511168 0.271896 0.000000
0.555422 0.312162 0.000000
0.593007 0.355318 0.000000
0.629253 0.396079 0.000000
0.661596 0.437783 0.000000
0.695078 0.475490 0.000000
0.728104 0.511168 0.000000
0.766955 0.541817 0.000000
0.807869 0.568706 0.000000
0.852140 0.591101 0.000000
0.899168 0.607324 0.000000
0.948673 0.617627 0.000000
1.000000 0.620539 0.000000
0.000000 0.167622 0.000000
0.100516 0.172825 0.000000
0.194846 0.184911 0.000000
0.280161 0.206151 0.000000
0.354634 0.232949 0.000000
0.418559 0.267336 0.000000
0.475490 0.304922 0.000000
0.516834 0.346196 0.000000
0.552761 0.389813 0.000000
0.587544 0.433340 0.000000
0.619870 0.476259 0.000000
0.653804 0.516834 0.000000
0.687838 0.555422 0.000000
0.730456 0.589436 0.000000
0.776593 0.619045 0.000000
0.826766 0.643510 0.000000
0.881115 0.661911 0.000000
0.939215 0.673147 0.000000
1.000000 0.676995 0.000000
0.000000 0.198653 0.000000
0.090650 0.203923 0.000000
0.176614 0.216364 0.000000
0.254668 0.238366 0.000000
0.323772 0.265600 0.000000
0.384499 0.300031 0.000000
0.437783 0.338404 0.000000
0.476259 0.380130 0.000000
0.511351 0.423258 0.000000
0.544328 0.467409 0.000000
0.576741 0.511351 0.000000
0.610187 0.552761 0.000000
0.644682 0.593007 0.000000
0.691419 0.629720 0.000000
0.742430 0.662555 0.000000
0.799186 0.688837 0.000000
0.861939 0.708730 0.000000
0.929134 0.720909 0.000000
1.000000 0.725425 0.000000
0.000000 0.233978 0.000000
0.080882 0.238909 0.000000
0.157105 0.251173 0.000000
0.227192 0.272463 0.000000
0.291113 0.299867 0.000000
0.346350 0.333334 0.000000
0.396079 0.370747 0.000000
0.433340 0.412456 0.000000
0.467408 0.455672 0.000000
0.500000 0.500000 0.000000
0.532592 0.544328 0.000000
0.566660 0.587544 0.000000
0.603921 0.629253 0.000000
0.653650 0.666666 0.000000
0.708887 0.700132 0.000000
0.772808 0.727537 0.000000
0.842895 0.748827 0.000000
0.919117 0.761091 0.000000
1.000000 0.766022 0.000000
0.000000 0.274575 0.000000
0.070865 0.279091 0.000000
0.138061 0.291270 0.000000
0.200814 0.311163 0.000000
0.257570 0.337445 0.000000
0.308581 0.370280 0.000000
0.355318 0.406993 0.000000
0.389813 0.447239 0.000000
0.423258 0.488649 0.000000
0.455672 0.532591 0.000000
0.488649 0.576742 0.000000
0.523741 0.619870 0.000000
0.562217 0.661596 0.000000
0.615501 0.699969 0.000000
0.676228 0.734400 0.000000
0.745332 0.761634 0.000000
0.823386 0.783636 0.000000
0.909349 0.796076 0.000000
1.000000 0.801346 0.000000
0.000000 0.323006 0.000000
0.060784 0.326853 0.000000
0.118885 0.338089 0.000000
0.173234 0.356490 0.000000
0.223407 0.380955 0.000000
0.269544 0.410564 0.000000
0.312162 0.444578 0.000000
0.346196 0.483166 0.000000
0.380130 0.523741 0.000000
0.412456 0.566660 0.000000
0.447239 0.610187 0.000000
0.483166 0.653804 0.000000
0.524510 0.695078 0.000000
0.581441 0.732664 0.000000
0.645366 0.767051 0.000000
0.719839 0.793849 0.000000
0.805154 0.815089 0.000000
0.899484 0.827176 0.000000
1.000000 0.832379 0.000000
0.000000 0.379461 0.000000
0.051326 0.382373 0.000000
0.100832 0.392676 0.000000
0.147860 0.408899 0.000000
0.192131 0.431293 0.000000
0.233045 0.458183 0.000000
0.271896 0.488832 0.000000
0.304922 0.524510 0.000000
0.338404 0.562217 0.000000
0.370747 0.603921 0.000000
0.406993 0.644682 0.000000
0.444578 0.687838 0.000000
0.488832 0.728104 0.000000
0.547412 0.763827 0.000000
0.613584 0.797071 0.000000
0.694015 0.822824 0.000000
0.786549 0.843537 0.000000
0.889790 0.855558 0.000000
1.000000 0.861111 0.000000
0.000000 0.444668 0.000000
0.043373 0.447543 0.000000
0.085574 0.457224 0.000000
0.125930 0.472167 0.000000
0.164579 0.492875 0.000000
0.201121 0.518263 0.000000
0.236173 0.547412 0.000000
0.267336 0.581441 0.000000
0.300031 0.615501 0.000000
0.333334 0.653650 0.000000
0.370280 0.691419 0.000000
0.410564 0.730456 0.000000
0.458183 0.766955 0.000000
0.518264 0.798879 0.000000
0.587501 0.828605 0.000000
0.672617 0.851839 0.000000
0.770951 0.871501 0.000000
0.881667 0.882283 0.000000
1.000000 0.887263 0.000000
0.000000 0.523249 0.000000
0.035690 0.525941 0.000000
0.070809 0.534850 0.000000
0.105296 0.547734 0.000000
0.139381 0.565599 0.000000
0.171395 0.587501 0.000000
0.202929 0.613585 0.000000
0.232949 0.645366 0.000000
0.265600 0.676228 0.000000
0.299868 0.708887 0.000000
0.337445 0.742430 0.000000
0.380955 0.776593 0.000000
0.431294 0.807869 0.000000
0.492874 0.835421 0.000000
0.565599 0.860619 0.000000
0.654392 0.880825 0.000000
0.758010 0.898090 0.000000
0.874686 0.907218 0.000000
1.000000 0.912225 0.000000
0.000000 0.619160 0.000000
0.029950 0.621171 0.000000
0.059842 0.628635 0.000000
0.089629 0.639136 0.000000
0.119176 0.654392 0.000000
0.148160 0.672617 0.000000
0.177176 0.694015 0.000000
0.206151 0.719839 0.000000
0.238366 0.745332 0.000000
0.272463 0.772808 0.000000
0.311163 0.799186 0.000000
0.356490 0.826766 0.000000
0.408899 0.852140 0.000000
0.472167 0.874070 0.000000
0.547734 0.894705 0.000000
0.639136 0.910371 0.000000
0.747126 0.924216 0.000000
0.868841 0.931200 0.000000
1.000000 0.934893 0.000000
0.000000 0.733000 0.000000
0.025130 0.734422 0.000000
0.050797 0.739714 0.000000
0.075784 0.747126 0.000000
0.101910 0.758010 0.000000
0.128499 0.770951 0.000000
0.156464 0.786550 0.000000
0.184911 0.805154 0.000000
0.216364 0.823386 0.000000
0.251173 0.842895 0.000000
0.291270 0.861939 0.000000
0.338089 0.881115 0.000000
0.392676 0.899168 0.000000
0.457224 0.914426 0.000000
0.534850 0.929191 0.000000
0.628635 0.940158 0.000000
0.739714 0.949203 0.000000
0.864965 0.954489 0.000000
1.000000 0.957403 0.000000
0.000000 0.861162 0.000000
0.022821 0.861934 0.000000
0.045511 0.864965 0.000000
0.068800 0.868841 0.000000
0.092782 0.874685 0.000000
0.117717 0.881667 0.000000
0.144441 0.889787 0.000000
0.172825 0.899484 0.000000
0.203924 0.909349 0.000000
0.238909 0.919117 0.000000
0.279091 0.929134 0.000000
0.326853 0.939215 0.000000
0.382373 0.948673 0.000000
0.447543 0.956626 0.000000
0.525941 0.964310 0.000000
0.621171 0.970050 0.000000
0.734422 0.974870 0.000000
0.861934 0.977178 0.000000
1.000000 0.978484 0.000000
0.000000 1.000000 0.000000
0.021515 1.000000 0.000000
0.042596 1.000000 0.000000
0.065108 1.000000 0.000000
0.087775 1.000000 0.000000
0.112738 1.000000 0.000000
0.138889 1.000000 0.000000
0.167620 1.000000 0.000000
0.198654 1.000000 0.000000
0.233978 1.000000 0.000000
0.274575 1.000000 0.000000
0.323005 1.000000 0.000000
0.379461 1.000000 0.000000
0.444668 1.000000 0.000000
0.523249 1.000000 0.000000
0.619160 1.000000 0.000000
0.733000 1.000000 0.000000
0.861161 1.000000 0.000000
1.000000 1.000000 0.000000
0.000000 0.000000 0.055000
0.138837 0.000000 0.055000
0.267001 0.000000 0.055000
0.380840 0.000000 0.055000
0.476751 0.000000 0.055000
0.555332 0.000000 0.055000
0.620539 0.000000 0.055000
0.676994 0.000000 0.055000
0.725425 0.000000 0.055000
0.766021 0.000000 0.055000
0.801347 0.000000 0.055000
0.832377 0.000000 0.055000
0.861114 0.000000 0.055000
0.887263 0.000000 0.055000
0.912225 0.000000 0.055000
0.934894 0.000000 0.055000
0.957402 0.000000 0.055000
0.978484 0.000000 0.055000
1.000000 0.000000 0.055000
0.000000 0.021516 0.055000
0.138066 0.022821 0.055000
0.265578 0.025130 0.055000
0.378829 0.029950 0.055000
0.474059 0.035690 0.055000
0.552457 0.043373 0.055000
0.617627 0.051326 0.055000
0.673147 0.060784 0.055000
0.720909 0.070865 0.055000
0.761091 0.080882 0.055000
0.796076 0.090650 0.055000
0.827176 0.100516 0.055000
0.855558 0.110209 0.055000
0.882283 0.118332 0.055000
0.907218 0.125314 0.055000
0.931200 0.131157 0.055000
0.954489 0.135032 0.055000
0.977178 0.138066 0.055000
1.000000 0.138835 0.055000
0.000000 0.042598 0.055000
0.135033 0.045511 0.055000
0.260287 0.050797 0.055000
0.371365 0.059842 0.055000
0.465150 0.070809 0.055000
0.542775 0.085574 0.055000
0.607324 0.100832 0.055000
0.661911 0.118885 0.055000
0.708730 0.138061 0.055000
0.748827 0.157105 0.055000
0.783636 0.176614 0.055000
0.815089 0.194846 0.055000
0.843537 0.213452 0.055000
0.871501 0.229049 0.055000
0.898090 0.241990 0.055000
0.924216 0.252875 0.055000
0.949203 0.260287 0.055000
0.974870 0.265578 0.055000
1.000000 0.267001 0.055000
0.000000 0.065106 0.055000
0.131158 0.068800 0.055000
0.252875 0.075784 0.055000
0.360864 0.089629 0.055000
0.452267 0.105295 0.055000
0.527833 0.125930 0.055000
0.591101 0.147859 0.055000
0.643510 0.173234 0.055000
0.688837 0.200814 0.055000
0.727537 0.227192 0.055000
0.761634 0.254668 0.055000
0.793849 0.280161 0.055000
0.822824 0.305985 0.055000
0.851839 0.327382 0.055000
0.880825 0.345608 0.055000
0.910371 0.360864 0.055000
0.940158 0.371365 0.055000
0.970050 0.378829 0.055000
1.000000 0.380840 0.055000
0.000000 0.087775 0.055000
0.125314 0.092781 0.055000
0.241990 0.101910 0.055000
0.345608 0.119175 0.055000
0.434401 0.139381 0.055000
0.507126 0.164579 0.055000
0.568706 0.192131 0.055000
0.619045 0.223407 0.055000
0.662555 0.257570 0.055000
0.700132 0.291113 0.055000
0.734400 0.323772 0.055000
0.767051 0.354634 0.055000
0.797072 0.386415 0.055000
0.828605 0.412499 0.055000
0.860619 0.434401 0.055000
0.894705 0.452266 0.055000
0.929191 0.465150 0.055000
0.964310 0.474059 0.055000
1.000000 0.476751 0.055000
0.000000 0.112737 0.055000
0.118332 0.117717 0.055000
0.229049 0.128499 0.055000
0.327382 0.148161 0.055000
0.412499 0.171395 0.055000
0.481736 0.201121 0.055000
0.541817 0.233045 0.055000
0.589436 0.269544 0.055000
0.629720 0.308581 0.055000
0.666666 0.346350 0.055000
0.699969 0.384499 0.055000
0.732664 0.418559 0.055000
0.763827 0.452588 0.055000
0.798879 0.481736 0.055000
0.835421 0.507126 0.055000
0.874070 0.527833 0.055000
0.914426 0.542775 0.055000
0.956626 0.552457 0.055000
1.000000 0.555332 0.055000
0.000000 0.138886 0.055000
0.110209 0.144442 0.055000
0.213451 0.156464 0.055000
0.305985 0.177176 0.055000
0.386415 0.202928 0.055000
0.452589 0.236173 0.055000
0.511168 0.271896 0.055000
0.555422 0.312162 0.055000
0.593007 0.355318 0.055000
0.629253 0.396079 0.055000
0.661596 0.437783 0.055000
0.695078 0.475490 0.055000
0.728104 0.511168 0.055000
0.766955 0.541817 0.055000
0.807869 0.568706 0.055000
0.852141 0.591101 0.055000
0.899168 0.607324 0.055000
0.948673 0.617627 0.055000
1.000000 0.620539 0.055000
0.000000 0.167623 0.055000
0.100516 0.172824 0.055000
0.194846 0.184911 0.055000
0.280161 0.206151 0.055000
0.354634 0.232949 0.055000
0.418559 0.267336 0.055000
0.475490 0.304922 0.055000
0.516834 0.346196 0.055000
0.552761 0.389813 0.055000
0.587544 0.433340 0.055000
0.619870 0.476258 0.055000
0.653804 0.516834 0.055000
0.687838 0.555422 0.055000
0.730456 0.589436 0.055000
0.776593 0.619045 0.055000
0.826766 0.643510 0.055000
0.881115 0.661911 0.055000
0.939215 0.673147 0.055000
1.000000 0.676994 0.055000
0.000000 0.198653 0.055000
0.090650 0.203924 0.055000
0.176614 0.216364 0.055000
0.254668 0.238366 0.055000
0.323772 0.265600 0.055000
0.384499 0.300031 0.055000
0.437783 0.338404 0.055000
0.476259 0.380130 0.055000
0.511351 0.423258 0.055000
0.544328 0.467409 0.055000
0.576742 0.511351 0.055000
0.610187 0.552761 0.055000
0.644682 0.593007 0.055000
0.691419 0.629720 0.055000
0.742430 0.662555 0.055000
0.799186 0.688837 0.055000
0.861939 0.708730 0.055000
0.929134 0.720909 0.055000
1.000000 0.725425 0.055000
0.000000 0.233978 0.055000
0.080882 0.238909 0.055000
0.157105 0.251173 0.055000
0.227192 0.272463 0.055000
0.291113 0.299867 0.055000
0.346350 0.333334 0.055000
0.396079 0.370747 0.055000
0.433340 0.412456 0.055000
0.467409 0.455672 0.055000
0.500000 0.500000 0.055000
0.532591 0.544328 0.055000
0.566660 0.587544 0.055000
0.603921 0.629253 0.055000
0.653650 0.666666 0.055000
0.708887 0.700132 0.055000
0.772808 0.727537 0.055000
0.842895 0.748827 0.055000
0.919117 0.761091 0.055000
1.000000 0.766022 0.055000
0.000000 0.274575 0.055000
0.070865 0.279091 0.055000
0.138061 0.291270 0.055000
0.200814 0.311163 0.055000
0.257570 0.337445 0.055000
0.308581 0.370280 0.055000
0.355318 0.406994 0.055000
0.389813 0.447239 0.055000
0.423258 0.488649 0.055000
0.455672 0.532591 0.055000
0.488649 0.576742 0.055000
0.523741 0.619870 0.055000
0.562217 0.661596 0.055000
0.615501 0.699969 0.055000
0.676228 0.734400 0.055000
0.745332 0.761634 0.055000
0.823386 0.783636 0.055000
0.909349 0.796076 0.055000
1.000000 0.801347 0.055000
0.000000 0.323006 0.055000
0.060784 0.326853 0.055000
0.118885 0.338089 0.055000
0.173234 0.356490 0.055000
0.223407 0.380955 0.055000
0.269544 0.410564 0.055000
0.312162 0.444578 0.055000
0.346196 0.483166 0.055000
0.380130 0.523741 0.055000
0.412456 0.566660 0.055000
0.447239 0.610187 0.055000
0.483166 0.653804 0.055000
0.524510 0.695078 0.055000
0.581441 0.732664 0.055000
0.645366 0.767051 0.055000
0.719839 0.793849 0.055000
0.805154 0.815089 0.055000
0.899483 0.827176 0.055000
1.000000 0.832377 0.055000
0.000000 0.379461 0.055000
0.051326 0.382373 0.055000
0.100832 0.392676 0.055000
0.147859 0.408899 0.055000
0.192131 0.431294 0.055000
0.233045 0.458183 0.055000
0.271896 0.488832 0.055000
0.304922 0.524510 0.055000
0.338404 0.562217 0.055000
0.370747 0.603921 0.055000
0.406993 0.644682 0.055000
0.444578 0.687838 0.055000
0.488832 0.728104 0.055000
0.547411 0.763827 0.055000
0.613585 0.797072 0.055000
0.694014 0.822824 0.055000
0.786551 0.843536 0.055000
0.889789 0.855558 0.055000
1.000000 0.861114 0.055000
0.000000 0.444668 0.055000
0.043373 0.447543 0.055000
0.085574 0.457225 0.055000
0.125930 0.472167 0.055000
0.164579 0.492874 0.055000
0.201121 0.518264 0.055000
0.236173 0.547412 0.055000
0.267336 0.581441 0.055000
0.300031 0.615501 0.055000
0.333334 0.653650 0.055000
0.370280 0.691419 0.055000
0.410564 0.730456 0.055000
0.458183 0.766955 0.055000
0.518263 0.798879 0.055000
0.587501 0.828605 0.055000
0.672617 0.851840 0.055000
0.770950 0.871501 0.055000
0.881667 0.882283 0.055000
1.000000 0.887263 0.055000
0.000000 0.523249 0.055000
0.035690 0.525941 0.055000
0.070809 0.534850 0.055000
0.105295 0.547734 0.055000
0.139381 0.565600 0.055000
0.171395 0.587501 0.055000
0.202929 0.613585 0.055000
0.232949 0.645366 0.055000
0.265600 0.676228 0.055000
0.299868 0.708887 0.055000
0.337445 0.742430 0.055000
0.380955 0.776593 0.055000
0.431294 0.807869 0.055000
0.492875 0.835421 0.055000
0.565599 0.860619 0.055000
0.654392 0.880824 0.055000
0.758011 0.898090 0.055000
0.874685 0.907218 0.055000
1.000000 0.912225 0.055000
0.000000 0.619160 0.055000
0.029950 0.621171 0.055000
0.059842 0.628635 0.055000
0.089629 0.639136 0.055000
0.119175 0.654392 0.055000
0.148160 0.672617 0.055000
0.177176 0.694015 0.055000
0.206151 0.719839 0.055000
0.238366 0.745332 0.055000
0.272463 0.772808 0.055000
0.311163 0.799186 0.055000
0.356490 0.826766 0.055000
0.408899 0.852140 0.055000
0.472167 0.874070 0.055000
0.547734 0.894705 0.055000
0.639136 0.910371 0.055000
0.747125 0.924216 0.055000
0.868841 0.931200 0.055000
1.000000 0.934893 0.055000
0.000000 0.732999 0.055000
0.025130 0.734422 0.055000
0.050797 0.739713 0.055000
0.075784 0.747125 0.055000
0.101910 0.758011 0.055000
0.128499 0.770951 0.055000
0.156464 0.786549 0.055000
0.184911 0.805154 0.055000
0.216364 0.823386 0.055000
0.251173 0.842895 0.055000
0.291270 0.861939 0.055000
0.338089 0.881115 0.055000
0.392676 0.899168 0.055000
0.457224 0.914426 0.055000
0.534850 0.929191 0.055000
0.628635 0.940158 0.055000
0.739714 0.949203 0.055000
0.864966 0.954489 0.055000
1.000000 0.957403 0.055000
0.000000 0.861163 0.055000
0.022821 0.861934 0.055000
0.045511 0.864967 0.055000
0.068800 0.868842 0.055000
0.092782 0.874685 0.055000
0.117717 0.881667 0.055000
0.144442 0.889789 0.055000
0.172824 0.899483 0.055000
0.203924 0.909349 0.055000
0.238909 0.919117 0.055000
0.279091 0.929134 0.055000
0.326853 0.939215 0.055000
0.382373 0.948673 0.055000
0.447543 0.956626 0.055000
0.525941 0.964310 0.055000
0.621171 0.970050 0.055000
0.734422 0.974870 0.055000
0.861934 0.977178 0.055000
1.000000 0.978485 0.055000
0.000000 1.000000 0.055000
0.021515 1.000000 0.055000
0.042597 1.000000 0.055000
0.065107 1.000000 0.055000
0.087775 1.000000 0.055000
0.112737 1.000000 0.055000
0.138887 1.000000 0.055000
0.167622 1.000000 0.055000
0.198653 1.000000 0.055000
0.233978 1.000000 0.055000
0.274575 1.000000 0.055000
0.323006 1.000000 0.055000
0.379461 1.000000 0.055000
0.444668 1.000000 0.055000
0.523249 1.000000 0.055000
0.619160 1.000000 0.055000
0.733000 1.000000 0.055000
0.861162 1.000000 0.055000
1.000000 1.000000 0.055000
0.000000 0.000000 0.110000
0.138835 0.000000 0.110000
0.267001 0.000000 0.110000
0.380840 0.000000 0.110000
0.476751 0.000000 0.110000
0.555332 0.000000 0.110000
0.620539 0.000000 0.110000
0.676994 0.000000 0.110000
0.725425 0.000000 0.110000
0.766022 0.000000 0.110000
0.801347 0.000000 0.110000
0.832378 0.000000 0.110000
0.861113 0.000000 0.110000
0.887263 0.000000 0.110000
0.912225 0.000000 0.110000
0.934893 0.000000 0.110000
0.957403 0.000000 0.110000