# vtk DataFile Version 2.0
Mesh for Fierro
ASCII 
DATASET UNSTRUCTURED_GRID

POINTS 2527 float
0.000000 0.000000 0.000000
0.078179 0.000000 0.000000
0.154607 0.000000 0.000000
0.229376 0.000000 0.000000
0.301498 0.000000 0.000000
0.371184 0.000000 0.000000
0.436821 0.000000 0.000000
0.497050 0.000000 0.000000
0.553886 0.000000 0.000000
0.608003 0.000000 0.000000
0.658765 0.000000 0.000000
0.706527 0.000000 0.000000
0.752000 0.000000 0.000000
0.796751 0.000000 0.000000
0.839666 0.000000 0.000000
0.881595 0.000000 0.000000
0.921616 0.000000 0.000000
0.961019 0.000000 0.000000
1.000000 0.000000 0.000000
0.000000 0.038981 0.000000
0.077884 0.039331 0.000000
0.154082 0.040187 0.000000
0.228590 0.041683 0.000000
0.300515 0.043624 0.000000
0.370090 0.046114 0.000000
0.435316 0.048866 0.000000
0.495538 0.051983 0.000000
0.552360 0.055330 0.000000
0.606328 0.058609 0.000000
0.657296 0.062017 0.000000
0.705025 0.065281 0.000000
0.750384 0.068407 0.000000
0.795388 0.071178 0.000000
0.838560 0.073585 0.000000
0.880672 0.075558 0.000000
0.920940 0.077007 0.000000
0.960669 0.077884 0.000000
1.000000 0.078179 0.000000
0.000000 0.078384 0.000000
0.077007 0.079060 0.000000
0.152331 0.080710 0.000000
0.226038 0.083592 0.000000
0.297222 0.087326 0.000000
0.366215 0.092170 0.000000
0.431336 0.097552 0.000000
0.490967 0.103683 0.000000
0.547373 0.110174 0.000000
0.601491 0.116629 0.000000
0.652389 0.123162 0.000000
0.700390 0.129529 0.000000
0.746291 0.135699 0.000000
0.791622 0.141033 0.000000
0.835448 0.145671 0.000000
0.878254 0.149544 0.000000
0.919290 0.152331 0.000000
0.959812 0.154082 0.000000
1.000000 0.154607 0.000000
0.000000 0.118405 0.000000
0.075558 0.119328 0.000000
0.149544 0.121746 0.000000
0.221952 0.125874 0.000000
0.291961 0.131340 0.000000
0.360155 0.138250 0.000000
0.424541 0.146060 0.000000
0.483483 0.155085 0.000000
0.539517 0.164358 0.000000
0.593461 0.173842 0.000000
0.644611 0.183449 0.000000
0.692837 0.192609 0.000000
0.739126 0.201670 0.000000
0.785321 0.209519 0.000000
0.830214 0.216289 0.000000
0.874126 0.221952 0.000000
0.916408 0.226038 0.000000
0.958317 0.228590 0.000000
1.000000 0.229376 0.000000
0.000000 0.160334 0.000000
0.073585 0.161440 0.000000
0.145671 0.164552 0.000000
0.216289 0.169786 0.000000
0.284771 0.176702 0.000000
0.351587 0.185360 0.000000
0.415241 0.195390 0.000000
0.473129 0.206774 0.000000
0.528600 0.218514 0.000000
0.582526 0.230741 0.000000
0.633863 0.242710 0.000000
0.682521 0.254450 0.000000
0.729807 0.266084 0.000000
0.776888 0.276107 0.000000
0.823298 0.284771 0.000000
0.868660 0.291961 0.000000
0.912674 0.297222 0.000000
0.956376 0.300515 0.000000
1.000000 0.301498 0.000000
0.000000 0.203249 0.000000
0.071178 0.204612 0.000000
0.141033 0.208378 0.000000
0.209519 0.214679 0.000000
0.276107 0.223112 0.000000
0.341320 0.233665 0.000000
0.403588 0.245610 0.000000
0.460556 0.258977 0.000000
0.515225 0.273060 0.000000
0.569038 0.287434 0.000000
0.620916 0.302157 0.000000
0.669670 0.315971 0.000000
0.717625 0.329467 0.000000
0.766335 0.341320 0.000000
0.814640 0.351587 0.000000
0.861750 0.360155 0.000000
0.907830 0.366215 0.000000
0.953885 0.370090 0.000000
1.000000 0.371184 0.000000
0.000000 0.248000 0.000000
0.068407 0.249616 0.000000
0.135699 0.253709 0.000000
0.201670 0.260874 0.000000
0.266084 0.270193 0.000000
0.329467 0.282375 0.000000
0.390862 0.295945 0.000000
0.446259 0.311209 0.000000
0.500021 0.327487 0.000000
0.553666 0.343588 0.000000
0.605779 0.360235 0.000000
0.655341 0.376200 0.000000
0.704055 0.390862 0.000000
0.754390 0.403588 0.000000
0.804610 0.415241 0.000000
0.853940 0.424541 0.000000
0.902448 0.431336 0.000000
0.951134 0.435316 0.000000
1.000000 0.436821 0.000000
0.000000 0.293473 0.000000
0.065281 0.294975 0.000000
0.129529 0.299610 0.000000
0.192609 0.307163 0.000000
0.254450 0.317479 0.000000
0.315971 0.330330 0.000000
0.376200 0.344659 0.000000
0.430120 0.360863 0.000000
0.483146 0.377849 0.000000
0.536761 0.395449 0.000000
0.588789 0.412999 0.000000
0.639137 0.430120 0.000000
0.688791 0.446259 0.000000
0.741023 0.460556 0.000000
0.793226 0.473129 0.000000
0.844915 0.483483 0.000000
0.896317 0.490967 0.000000
0.948017 0.495538 0.000000
1.000000 0.497050 0.000000
0.000000 0.341235 0.000000
0.062017 0.342704 0.000000
0.123162 0.347611 0.000000
0.183449 0.355389 0.000000
0.242710 0.366137 0.000000
0.302157 0.379084 0.000000
0.360235 0.394221 0.000000
0.412999 0.411211 0.000000
0.465533 0.428587 0.000000
0.518617 0.447085 0.000000
0.571413 0.465533 0.000000
0.622151 0.483146 0.000000
0.672513 0.500021 0.000000
0.726940 0.515225 0.000000
0.781486 0.528600 0.000000
0.835642 0.539517 0.000000
0.889826 0.547373 0.000000
0.944669 0.552360 0.000000
1.000000 0.553886 0.000000
0.000000 0.391997 0.000000
0.058609 0.393672 0.000000
0.116629 0.398509 0.000000
0.173842 0.406539 0.000000
0.230741 0.417474 0.000000
0.287434 0.430962 0.000000
0.343588 0.446334 0.000000
0.395449 0.463239 0.000000
0.447085 0.481383 0.000000
0.500000 0.500000 0.000000
0.552915 0.518617 0.000000
0.604551 0.536761 0.000000
0.656412 0.553666 0.000000
0.712566 0.569038 0.000000
0.769259 0.582526 0.000000
0.826158 0.593461 0.000000
0.883371 0.601491 0.000000
0.941391 0.606328 0.000000
1.000000 0.608003 0.000000
0.000000 0.446114 0.000000
0.055330 0.447640 0.000000
0.110174 0.452627 0.000000
0.164358 0.460483 0.000000
0.218514 0.471400 0.000000
0.273060 0.484775 0.000000
0.327487 0.499979 0.000000
0.377849 0.516854 0.000000
0.428587 0.534467 0.000000
0.481383 0.552915 0.000000
0.534467 0.571413 0.000000
0.587001 0.588789 0.000000
0.639765 0.605779 0.000000
0.697843 0.620916 0.000000
0.757290 0.633863 0.000000
0.816551 0.644611 0.000000
0.876838 0.652389 0.000000
0.937983 0.657296 0.000000
1.000000 0.658765 0.000000
0.000000 0.502950 0.000000
0.051983 0.504462 0.000000
0.103683 0.509033 0.000000
0.155085 0.516517 0.000000
0.206774 0.526871 0.000000
0.258977 0.539444 0.000000
0.311209 0.553741 0.000000
0.360863 0.569880 0.000000
0.411211 0.587001 0.000000
0.463239 0.604551 0.000000
0.516854 0.622151 0.000000
0.569880 0.639137 0.000000
0.623800 0.655341 0.000000
0.684029 0.669670 0.000000
0.745550 0.682521 0.000000
0.807391 0.692837 0.000000
0.870471 0.700390 0.000000
0.934719 0.705025 0.000000
1.000000 0.706527 0.000000
0.000000 0.563179 0.000000
0.048866 0.564684 0.000000
0.097552 0.568664 0.000000
0.146060 0.575459 0.000000
0.195390 0.584759 0.000000
0.245610 0.596412 0.000000
0.295945 0.609138 0.000000
0.344659 0.623800 0.000000
0.394221 0.639765 0.000000
0.446334 0.656412 0.000000
0.499979 0.672513 0.000000
0.553741 0.688791 0.000000
0.609138 0.704055 0.000000
0.670533 0.717625 0.000000
0.733916 0.729807 0.000000
0.798330 0.739126 0.000000
0.864301 0.746291 0.000000
0.931593 0.750384 0.000000
1.000000 0.752000 0.000000
0.000000 0.628816 0.000000
0.046114 0.629910 0.000000
0.092170 0.633785 0.000000
0.138250 0.639845 0.000000
0.185360 0.648413 0.000000
0.233665 0.658680 0.000000
0.282375 0.670533 0.000000
0.330330 0.684029 0.000000
0.379084 0.697843 0.000000
0.430962 0.712566 0.000000
0.484775 0.726940 0.000000
0.539444 0.741023 0.000000
0.596412 0.754390 0.000000
0.658680 0.766335 0.000000
0.723893 0.776888 0.000000
0.790481 0.785321 0.000000
0.858967 0.791622 0.000000
0.928821 0.795388 0.000000
1.000000 0.796751 0.000000
0.000000 0.698502 0.000000
0.043624 0.699485 0.000000
0.087326 0.702778 0.000000
0.131340 0.708039 0.000000
0.176702 0.715229 0.000000
0.223112 0.723893 0.000000
0.270193 0.733916 0.000000
0.317479 0.745550 0.000000
0.366137 0.757290 0.000000
0.417474 0.769259 0.000000
0.471400 0.781486 0.000000
0.526871 0.793226 0.000000
0.584759 0.804610 0.000000
0.648413 0.814640 0.000000
0.715229 0.823298 0.000000
0.783711 0.830214 0.000000
0.854329 0.835448 0.000000
0.926414 0.838560 0.000000
1.000000 0.839666 0.000000
0.000000 0.770624 0.000000
0.041683 0.771410 0.000000
0.083592 0.773962 0.000000
0.125874 0.778048 0.000000
0.169786 0.783711 0.000000
0.214679 0.790481 0.000000
0.260874 0.798330 0.000000
0.307163 0.807391 0.000000
0.355389 0.816551 0.000000
0.406539 0.826158 0.000000
0.460483 0.835642 0.000000
0.516517 0.844915 0.000000
0.575459 0.853940 0.000000
0.639845 0.861750 0.000000
0.708039 0.868660 0.000000
0.778048 0.874126 0.000000
0.850456 0.878254 0.000000
0.924442 0.880672 0.000000
1.000000 0.881595 0.000000
0.000000 0.845393 0.000000
0.040187 0.845918 0.000000
0.080710 0.847669 0.000000
0.121746 0.850456 0.000000
0.164552 0.854329 0.000000
0.208378 0.858967 0.000000
0.253709 0.864301 0.000000
0.299610 0.870471 0.000000
0.347611 0.876838 0.000000
0.398509 0.883371 0.000000
0.452627 0.889826 0.000000
0.509033 0.896317 0.000000
0.568664 0.902448 0.000000
0.633785 0.907830 0.000000
0.702778 0.912674 0.000000
0.773962 0.916408 0.000000
0.847669 0.919290 0.000000
0.922993 0.920940 0.000000
1.000000 0.921616 0.000000
0.000000 0.921820 0.000000
0.039331 0.922115 0.000000
0.079060 0.922993 0.000000
0.119328 0.924442 0.000000
0.161440 0.926414 0.000000
0.204612 0.928821 0.000000
0.249616 0.931593 0.000000
0.294975 0.934719 0.000000
0.342704 0.937983 0.000000
0.393672 0.941391 0.000000
0.447640 0.944669 0.000000
0.504462 0.948017 0.000000
0.564684 0.951134 0.000000
0.629910 0.953885 0.000000
0.699485 0.956376 0.000000
0.771410 0.958317 0.000000
0.845918 0.959812 0.000000
0.922116 0.960669 0.000000
1.000000 0.961019 0.000000
0.000000 1.000000 0.000000
0.038981 1.000000 0.000000
0.078384 1.000000 0.000000
0.118405 1.000000 0.000000
0.160334 1.000000 0.000000
0.203249 1.000000 0.000000
0.248000 1.000000 0.000000
0.293473 1.000000 0.000000
0.341235 1.000000 0.000000
0.391997 1.000000 0.000000
0.446114 1.000000 0.000000
0.502950 1.000000 0.000000
0.563179 1.000000 0.000000
0.628816 1.000000 0.000000
0.698502 1.000000 0.000000
0.770624 1.000000 0.000000
0.845393 1.000000 0.000000
0.921820 1.000000 0.000000
1.000000 1.000000 0.000000
0.000000 0.000000 0.055000
0.078179 0.000000 0.055000
0.154607 0.000000 0.055000
0.229376 0.000000 0.055000
0.301498 0.000000 0.055000
[...]
POINT_DATA 2527 
VECTORS pos float 
0.000000 0.000000 0.000000
0.078179 0.000000 0.000000
0.154607 0.000000 0.000000
0.229376 0.000000 0.000000
0.301498 0.000000 0.000000
0.371184 0.000000 0.000000
0.436821 0.000000 0.000000
0.497050 0.000000 0.000000
0.553886 0.000000 0.000000
0.608003 0.000000 0.000000
0.658765 0.000000 0.000000
0.706527 0.000000 0.000000
0.752000 0.000000 0.000000
0.796751 0.000000 0.000000
0.839666 0.000000 0.000000
0.881595 0.000000 0.000000
0.921616 0.000000 0.000000
0.961019 0.000000 0.000000
1.000000 0.000000 0.000000
0.000000 0.038981 0.000000
0.077884 0.039331 0.000000
0.154082 0.040187 0.000000
0.228590 0.041683 0.000000
0.300515 0.043624 0.000000
0.370090 0.046114 0.000000
0.435316 0.048866 0.000000
0.495538 0.051983 0.000000
0.552360 0.055330 0.000000
0.606328 0.058609 0.000000
0.657296 0.062017 0.000000
0.705025 0.065281 0.000000
0.750384 0.068407 0.000000
0.795388 0.071178 0.000000
0.838560 0.073585 0.000000
0.880672 0.075558 0.000000
0.920940 0.077007 0.000000
0.960669 0.077884 0.000000
1.000000 0.078179 0.000000
0.000000 0.078384 0.000000
0.077007 0.079060 0.000000
0.152331 0.080710 0.000000
0.226038 0.083592 0.000000
0.297222 0.087326 0.000000
0.366215 0.092170 0.000000
0.431336 0.097552 0.000000
0.490967 0.103683 0.000000
0.547373 0.110174 0.000000
0.601491 0.116629 0.000000
0.652389 0.123162 0.000000
0.700390 0.129529 0.000000
0.746291 0.135699 0.000000
0.791622 0.141033 0.000000
0.835448 0.145671 0.000000
0.878254 0.149544 0.000000
0.919290 0.152331 0.000000
0.959812 0.154082 0.000000
1.000000 0.154607 0.000000
0.000000 0.118405 0.000000
0.075558 0.119328 0.000000
0.149544 0.121746 0.000000
0.221952 0.125874 0.000000
0.291961 0.131340 0.000000
0.360155 0.138250 0.000000
0.424541 0.146060 0.000000
0.483483 0.155085 0.000000
0.539517 0.164358 0.000000
0.593461 0.173842 0.000000
0.644611 0.183449 0.000000
0.692837 0.192609 0.000000
0.739126 0.201670 0.000000
0.785321 0.209519 0.000000
0.830214 0.216289 0.000000
0.874126 0.221952 0.000000
0.916408 0.226038 0.000000
0.958317 0.228590 0.000000
1.000000 0.229376 0.000000
0.000000 0.160334 0.000000
0.073585 0.161440 0.000000
0.145671 0.164552 0.000000
0.216289 0.169786 0.000000
0.284771 0.176702 0.000000
0.351587 0.185360 0.000000
0.415241 0.195390 0.000000
0.473129 0.206774 0.000000
0.528600 0.218514 0.000000
0.582526 0.230741 0.000000
0.633863 0.242710 0.000000
0.682521 0.254450 0.000000
0.729807 0.266084 0.000000
0.776888 0.276107 0.000000
0.823298 0.284771 0.000000
0.868660 0.291961 0.000000
0.912674 0.297222 0.000000
0.956376 0.300515 0.000000
1.000000 0.301498 0.000000
0.000000 0.203249 0.000000
0.071178 0.204612 0.000000
0.141033 0.208378 0.000000
0.209519 0.214679 0.000000
0.276107 0.223112 0.000000
0.341320 0.233665 0.000000
0.403588 0.245610 0.000000
0.460556 0.258977 0.000000
0.515225 0.273060 0.000000
0.569038 0.287434 0.000000
0.620916 0.302157 0.000000
0.669670 0.315971 0.000000
0.717625 0.329467 0.000000
0.766335 0.341320 0.000000
0.814640 0.351587 0.000000
0.861750 0.360155 0.000000
0.907830 0.366215 0.000000
0.953885 0.370090 0.000000
1.000000 0.371184 0.000000
0.000000 0.248000 0.000000
0.068407 0.249616 0.000000
0.135699 0.253709 0.000000
0.201670 0.260874 0.000000
0.266084 0.270193 0.000000
0.329467 0.282375 0.000000
0.390862 0.295945 0.000000
0.446259 0.311209 0.000000
0.500021 0.327487 0.000000
0.553666 0.343588 0.000000
0.605779 0.360235 0.000000
0.655341 0.376200 0.000000
0.704055 0.390862 0.000000
0.754390 0.403588 0.000000
0.804610 0.415241 0.000000
0.853940 0.424541 0.000000
0.902448 0.431336 0.000000
0.951134 0.435316 0.000000
1.000000 0.436821 0.000000
0.000000 0.293473 0.000000
0.065281 0.294975 0.000000
0.129529 0.299610 0.000000
0.192609 0.307163 0.000000
0.254450 0.317479 0.000000
0.315971 0.330330 0.000000
0.376200 0.344659 0.000000
0.430120 0.360863 0.000000
0.483146 0.377849 0.000000
0.536761 0.395449 0.000000
0.588789 0.412999 0.000000
0.639137 0.430120 0.000000
0.688791 0.446259 0.000000
0.741023 0.460556 0.000000
0.793226 0.473129 0.000000
0.844915 0.483483 0.000000
0.896317 0.490967 0.000000
0.948017 0.495538 0.000000
1.000000 0.497050 0.000000
0.000000 0.341235 0.000000
0.062017 0.342704 0.000000
0.123162 0.347611 0.000000
0.183449 0.355389 0.000000
0.242710 0.366137 0.000000
0.302157 0.379084 0.000000
0.360235 0.394221 0.000000
0.412999 0.411211 0.000000
0.465533 0.428587 0.000000
0.518617 0.447085 0.000000
0.571413 0.465533 0.000000
0.622151 0.483146 0.000000
0.672513 0.500021 0.000000
0.726940 0.515225 0.000000
0.781486 0.528600 0.000000
0.835642 0.539517 0.000000
0.889826 0.547373 0.000000
0.944669 0.552360 0.000000
1.000000 0.553886 0.000000
0.000000 0.391997 0.000000
0.058609 0.393672 0.000000
0.116629 0.398509 0.000000
0.173842 0.406539 0.000000
0.230741 0.417474 0.000000
0.287434 0.430962 0.000000
0.343588 0.446334 0.000000
0.395449 0.463239 0.000000
0.447085 0.481383 0.000000
0.500000 0.500000 0.000000
0.552915 0.518617 0.000000
0.604551 0.536761 0.000000
0.656412 0.553666 0.000000
0.712566 0.569038 0.000000
0.769259 0.582526 0.000000
0.826158 0.593461 0.000000
0.883371 0.601491 0.000000
0.941391 0.606328 0.000000
1.000000 0.608003 0.000000
0.000000 0.446114 0.000000
0.055330 0.447640 0.000000
0.110174 0.452627 0.000000
0.164358 0.460483 0.000000
0.218514 0.471400 0.000000
0.273060 0.484775 0.000000
0.327487 0.499979 0.000000
0.377849 0.516854 0.000000
0.428587 0.534467 0.000000
0.481383 0.552915 0.000000
0.534467 0.571413 0.000000
0.587001 0.588789 0.000000
0.639765 0.605779 0.000000
0.697843 0.620916 0.000000
0.757290 0.633863 0.000000
0.816551 0.644611 0.000000
0.876838 0.652389 0.000000
0.937983 0.657296 0.000000
1.000000 0.658765 0.000000
0.000000 0.502950 0.000000
0.051983 0.504462 0.000000
0.103683 0.509033 0.000000
0.155085 0.516517 0.000000
0.206774 0.526871 0.000000
0.258977 0.539444 0.000000
0.311209 0.553741 0.000000
0.360863 0.569880 0.000000
0.411211 0.587001 0.000000
0.463239 0.604551 0.000000
0.516854 0.622151 0.000000
0.569880 0.639137 0.000000
0.623800 0.655341 0.000000
0.684029 0.669670 0.000000
0.745550 0.682521 0.000000
0.807391 0.692837 0.000000
0.870471 0.700390 0.000000
0.934719 0.705025 0.000000
1.000000 0.706527 0.000000
0.000000 0.563179 0.000000
0.048866 0.564684 0.000000
0.097552 0.568664 0.000000
0.146060 0.575459 0.000000
0.195390 0.584759 0.000000
0.245610 0.596412 0.000000
0.295945 0.609138 0.000000
0.344659 0.623800 0.000000
0.394221 0.639765 0.000000
0.446334 0.656412 0.000000
0.499979 0.672513 0.000000
0.553741 0.688791 0.000000
0.609138 0.704055 0.000000
0.670533 0.717625 0.000000
0.733916 0.729807 0.000000
0.798330 0.739126 0.000000
0.864301 0.746291 0.000000
0.931593 0.750384 0.000000
1.000000 0.752000 0.000000
0.000000 0.628816 0.000000
0.046114 0.629910 0.000000
0.092170 0.633785 0.000000
0.138250 0.639845 0.000000
0.185360 0.648413 0.000000
0.233665 0.658680 0.000000
0.282375 0.670533 0.000000
0.330330 0.684029 0.000000
0.379084 0.697843 0.000000
0.430962 0.712566 0.000000
0.484775 0.726940 0.000000
0.539444 0.741023 0.000000
0.596412 0.754390 0.000000
0.658680 0.766335 0.000000
0.723893 0.776888 0.000000
0.790481 0.785321 0.000000
0.858967 0.791622 0.000000
0.928821 0.795388 0.000000
1.000000 0.796751 0.000000
0.000000 0.698502 0.000000
0.043624 0.699485 0.000000
0.087326 0.702778 0.000000
0.131340 0.708039 0.000000
0.176702 0.715229 0.000000
0.223112 0.723893 0.000000
0.270193 0.733916 0.000000
0.317479 0.745550 0.000000
0.366137 0.757290 0.000000
0.417474 0.769259 0.000000
0.471400 0.781486 0.000000
0.526871 0.793226 0.000000
0.584759 0.804610 0.000000
0.648413 0.814640 0.000000
0.715229 0.823298 0.000000
0.783711 0.830214 0.000000
0.854329 0.835448 0.000000
0.926414 0.838560 0.000000
1.000000 0.839666 0.000000
0.000000 0.770624 0.000000
0.041683 0.771410 0.000000
0.083592 0.773962 0.000000
0.125874 0.778048 0.000000
0.169786 0.783711 0.000000
0.214679 0.790481 0.000000
0.260874 0.798330 0.000000
0.307163 0.807391 0.000000
0.355389 0.816551 0.000000
0.406539 0.826158 0.000000
0.460483 0.835642 0.000000
0.516517 0.844915 0.000000
0.575459 0.853940 0.000000
0.639845 0.861750 0.000000
0.708039 0.868660 0.000000
0.778048 0.874126 0.000000
0.850456 0.878254 0.000000
0.924442 0.880672 0.000000
1.000000 0.881595 0.000000
0.000000 0.845393 0.000000
0.040187 0.845918 0.000000
0.080710 0.847669 0.000000
0.121746 0.850456 0.000000
0.164552 0.854329 0.000000
0.208378 0.858967 0.000000
0.253709 0.864301 0.000000
0.299610 0.870471 0.000000
0.347611 0.876838 0.000000
0.398509 0.883371 0.000000
0.452627 0.889826 0.000000
0.509033 0.896317 0.000000
0.568664 0.902448 0.000000
0.633785 0.907830 0.000000
0.702778 0.912674 0.000000
0.773962 0.916408 0.000000
0.847669 0.919290 0.000000
0.922993 0.920940 0.000000
1.000000 0.921616 0.000000
0.000000 0.921820 0.000000
0.039331 0.922115 0.000000
0.079060 0.922993 0.000000
0.119328 0.924442 0.000000
0.161440 0.926414 0.000000
0.204612 0.928821 0.000000
0.249616 0.931593 0.000000
0.294975 0.934719 0.000000
0.342704 0.937983 0.000000
0.393672 0.941391 0.000000
0.447640 0.944669 0.000000
0.504462 0.948017 0.000000
0.564684 0.951134 0.000000
0.629910 0.953885 0.000000
0.699485 0.956376 0.000000
0.771410 0.958317 0.000000
0.845918 0.959812 0.000000
0.922116 0.960669 0.000000
1.000000 0.961019 0.000000
0.000000 1.000000 0.000000
0.038981 1.000000 0.000000
0.078384 1.000000 0.000000
0.118405 1.000000 0.000000
0.160334 1.000000 0.000000
0.203249 1.000000 0.000000
0.248000 1.000000 0.000000
0.293473 1.000000 0.000000
0.341235 1.000000 0.000000
0.391997 1.000000 0.000000
0.446114 1.000000 0.000000
0.502950 1.000000 0.000000
0.563179 1.000000 0.000000
0.628816 1.000000 0.000000
0.698502 1.000000 0.000000
0.770624 1.000000 0.000000
0.845393 1.000000 0.000000
0.921820 1.000000 0.000000
1.000000 1.000000 0.000000
0.000000 0.000000 0.055000
0.078179 0.000000 0.055000
0.154607 0.000000 0.055000
0.229376 0.000000 0.055000
0.301498 0.000000 0.055000
0.371184 0.000000 0.055000
0.436821 0.000000 0.055000
0.497050 0.000000 0.055000
0.553886 0.000000 0.055000
0.608003 0.000000 0.055000
0.658765 0.000000 0.055000
0.706527 0.000000 0.055000
0.752000 0.000000 0.055000
0.796751 0.000000 0.055000
0.839666 0.000000 0.055000
0.881595 0.000000 0.055000
0.921616 0.000000 0.055000
0.961019 0.000000 0.055000
1.000000 0.000000 0.055000
0.000000 0.038981 0.055000
0.077884 0.039331 0.055000
0.154082 0.040187 0.055000
0.228590 0.041683 0.055000
0.300515 0.043624 0.055000
0.370090 0.046114 0.055000
0.435316 0.048866 0.055000
0.495538 0.051983 0.055000
0.552360 0.055330 0.055000
0.606328 0.058609 0.055000
0.657296 0.062017 0.055000
0.705025 0.065281 0.055000
0.750384 0.068407 0.055000
0.795388 0.071178 0.055000
0.838560 0.073585 0.055000
0.880672 0.075558 0.055000
0.920940 0.077007 0.055000
0.960669 0.077884 0.055000
1.000000 0.078179 0.055000
0.000000 0.078384 0.055000
0.077007 0.079060 0.055000
0.152331 0.080710 0.055000
0.226038 0.083592 0.055000
0.297222 0.087326 0.055000
0.366215 0.092170 0.055000
0.431336 0.097552 0.055000
0.490967 0.103683 0.055000
0.547373 0.110174 0.055000
0.601491 0.116629 0.055000
0.652389 0.123162 0.055000
0.700390 0.129529 0.055000
0.746291 0.135699 0.055000
0.791622 0.141033 0.055000
0.835448 0.145671 0.055000
0.878254 0.149544 0.055000
0.919290 0.152331 0.055000
0.959812 0.154082 0.055000
1.000000 0.154607 0.055000
0.000000 0.118405 0.055000
0.075558 0.119328 0.055000
0.149544 0.121746 0.055000
0.221952 0.125874 0.055000
0.291961 0.131340 0.055000
0.360155 0.138250 0.055000
0.424541 0.146060 0.055000
0.483483 0.155085 0.055000
0.539517 0.164358 0.055000
0.593461 0.173842 0.055000
0.644611 0.183449 0.055000
0.692837 0.192609 0.055000
0.739126 0.201670 0.055000
0.785321 0.209519 0.055000
0.830214 0.216289 0.055000
0.874126 0.221952 0.055000
0.916408 0.226038 0.055000
0.958317 0.228590 0.055000
1.000000 0.229376 0.055000
0.000000 0.160334 0.055000
0.073585 0.161440 0.055000
0.145671 0.164552 0.055000
0.216289 0.169786 0.055000
0.284771 0.176702 0.055000
0.351587 0.185360 0.055000
0.415241 0.195390 0.055000
0.473129 0.206774 0.055000
0.528600 0.218514 0.055000
0.582526 0.230741 0.055000
0.633863 0.242710 0.055000
0.682521 0.254450 0.055000
0.729807 0.266084 0.055000
0.776888 0.276107 0.055000
0.823298 0.284771 0.055000
0.868660 0.291961 0.055000
0.912674 0.297222 0.055000
0.956376 0.300515 0.055000
1.000000 0.301498 0.055000
0.000000 0.203249 0.055000
0.071178 0.204612 0.055000
0.141033 0.208378 0.055000
0.209519 0.214679 0.055000
0.276107 0.223112 0.055000
0.341320 0.233665 0.055000
0.403588 0.245610 0.055000
0.460556 0.258977 0.055000
0.515225 0.273060 0.055000
0.569038 0.287434 0.055000
0.620916 0.302157 0.055000
0.669670 0.315971 0.055000
0.717625 0.329467 0.055000
0.766335 0.341320 0.055000
0.814640 0.351587 0.055000
0.861750 0.360155 0.055000
0.907830 0.366215 0.055000
0.953885 0.370090 0.055000
1.000000 0.371184 0.055000
0.000000 0.248000 0.055000
0.068407 0.249616 0.055000
0.135699 0.253709 0.055000
0.201670 0.260874 0.055000
0.266084 0.270193 0.055000
0.329467 0.282375 0.055000
0.390862 0.295945 0.055000
0.446259 0.311209 0.055000
0.500021 0.327487 0.055000
0.553666 0.343588 0.055000
0.605779 0.360235 0.055000
0.655341 0.376200 0.055000
0.704055 0.390862 0.055000
0.754390 0.403588 0.055000
0.804610 0.415241 0.055000
0.853940 0.424541 0.055000
0.902448 0.431336 0.055000
0.951134 0.435316 0.055000
1.000000 0.436821 0.055000
0.000000 0.293473 0.055000
0.065281 0.294975 0.055000
0.129529 0.299610 0.055000
0.192609 0.307163 0.055000
0.254450 0.317479 0.055000
0.315971 0.330330 0.055000
0.376200 0.344659 0.055000
0.430120 0.360863 0.055000
0.483146 0.377849 0.055000
0.536761 0.395449 0.055000
0.588789 0.412999 0.055000
0.639137 0.430120 0.055000
0.688791 0.446259 0.055000
0.741023 0.460556 0.055000
0.793226 0.473129 0.055000
0.844915 0.483483 0.055000
0.896317 0.490967 0.055000
0.948017 0.495538 0.055000
1.000000 0.497050 0.055000
0.000000 0.341235 0.055000
0.062017 0.342704 0.055000
0.123162 0.347611 0.055000
0.183449 0.355389 0.055000
0.242710 0.366137 0.055000
0.302157 0.379084 0.055000
0.360235 0.394221 0.055000
0.412999 0.411211 0.055000
0.465533 0.428587 0.055000
0.518617 0.447085 0.055000
0.571413 0.465533 0.055000
0.622151 0.483146 0.055000
0.672513 0.500021 0.055000
0.726940 0.515225 0.055000
0.781486 0.528600 0.055000
0.835642 0.539517 0.055000
0.889826 0.547373 0.055000
0.944669 0.552360 0.055000
1.000000 0.553886 0.055000
0.000000 0.391997 0.055000
0.058609 0.393672 0.055000
0.116629 0.398509 0.055000
0.173842 0.406539 0.055000
0.230741 0.417474 0.055000
0.287434 0.430962 0.055000
0.343588 0.446334 0.055000
0.395449 0.463239 0.055000
0.447085 0.481383 0.055000
0.500000 0.500000 0.055000
0.552915 0.518617 0.055000
0.604551 0.536761 0.055000
0.656412 0.553666 0.055000
0.712566 0.569038 0.055000
0.769259 0.582526 0.055000
0.826158 0.593461 0.055000
0.883371 0.601491 0.055000
0.941391 0.606328 0.055000
1.000000 0.608003 0.055000
0.000000 0.446114 0.055000
0.055330 0.447640 0.055000
0.110174 0.452627 0.055000
0.164358 0.460483 0.055000
0.218514 0.471400 0.055000
0.273060 0.484775 0.055000
0.327487 0.499979 0.055000
0.377849 0.516854 0.055000
0.428587 0.534467 0.055000
0.481383 0.552915 0.055000
0.534467 0.571413 0.055000
0.587001 0.588789 0.055000
0.639765 0.605779 0.055000
0.697843 0.620916 0.055000
0.757290 0.633863 0.055000
0.816551 0.644611 0.055000
0.876838 0.652389 0.055000
0.937983 0.657296 0.055000
1.000000 0.658765 0.055000
0.000000 0.502950 0.055000
0.051983 0.504462 0.055000
0.103683 0.509033 0.055000
0.155085 0.516517 0.055000
0.206774 0.526871 0.055000
0.258977 0.539444 0.055000
0.311209 0.553741 0.055000
0.360863 0.569880 0.055000
0.411211 0.587001 0.055000
0.463239 0.604551 0.055000
0.516854 0.622151 0.055000
0.569880 0.639137 0.055000
0.623800 0.655341 0.055000
0.684029 0.669670 0.055000
0.745550 0.682521 0.055000
0.807391 0.692837 0.055000
0.870471 0.700390 0.055000
0.934719 0.705025 0.055000
1.000000 0.706527 0.055000
0.000000 0.563179 0.055000
0.048866 0.564684 0.055000
0.097552 0.568664 0.055000
0.146060 0.575459 0.055000
0.195390 0.584759 0.055000
0.245610 0.596412 0.055000
0.295945 0.609138 0.055000
0.344659 0.623800 0.055000
0.394221 0.639765 0.055000
0.446334 0.656412 0.055000
0.499979 0.672513 0.055000
0.553741 0.688791 0.055000
0.609138 0.704055 0.055000
0.670533 0.717625 0.055000
0.733916 0.729807 0.055000
0.798330 0.739126 0.055000
0.864301 0.746291 0.055000
0.931593 0.750384 0.055000
1.000000 0.752000 0.055000
0.000000 0.628816 0.055000
0.046114 0.629910 0.055000
0.092170 0.633785 0.055000
0.138250 0.639845 0.055000
0.185360 0.648413 0.055000
0.233665 0.658680 0.055000
0.282375 0.670533 0.055000
0.330330 0.684029 0.055000
0.379084 0.697843 0.055000
0.430962 0.712566 0.055000
0.484775 0.726940 0.055000
0.539444 0.741023 0.055000
0.596412 0.754390 0.055000
0.658680 0.766335 0.055000
0.723893 0.776888 0.055000
0.790481 0.785321 0.055000
0.858967 0.791622 0.055000
0.928821 0.795388 0.055000
1.000000 0.796751 0.055000
0.000000 0.698502 0.055000
0.043624 0.699485 0.055000
0.087326 0.702778 0.055000
0.131340 0.708039 0.055000
0.176702 0.715229 0.055000
0.223112 0.723893 0.055000
0.270193 0.733916 0.055000
0.317479 0.745550 0.055000
0.366137 0.757290 0.055000
0.417474 0.769259 0.055000
0.471400 0.781486 0.055000
0.526871 0.793226 0.055000
0.584759 0.804610 0.055000
0.648413 0.814640 0.055000
0.715229 0.823298 0.055000
0.783711 0.830214 0.055000
0.854329 0.835448 0.055000
0.926414 0.838560 0.055000
1.000000 0.839666 0.055000
0.000000 0.770624 0.055000
0.041683 0.771410 0.055000
0.083592 0.773962 0.055000
0.125874 0.778048 0.055000
0.169786 0.783711 0.055000
0.214679 0.790481 0.055000
0.260874 0.798330 0.055000
0.307163 0.807391 0.055000
0.355389 0.816551 0.055000
0.406539 0.826158 0.055000
0.460483 0.835642 0.055000
0.516517 0.844915 0.055000
0.575459 0.853940 0.055000
0.639845 0.861750 0.055000
0.708039 0.868660 0.055000
0.778048 0.874126 0.055000
0.850456 0.878254 0.055000
0.924442 0.880672 0.055000
1.000000 0.881595 0.055000
0.000000 0.845393 0.055000
0.040187 0.845918 0.055000
0.080710 0.847669 0.055000
0.121746 0.850456 0.055000
0.164552 0.854329 0.055000
0.208378 0.858967 0.055000
0.253709 0.864301 0.055000
0.299610 0.870471 0.055000
0.347611 0.876838 0.055000
0.398509 0.883371 0.055000
0.452627 0.889826 0.055000
0.509033 0.896317 0.055000
0.568664 0.902448 0.055000
0.633785 0.907830 0.055000
0.702778 0.912674 0.055000
0.773962 0.916408 0.055000
0.847669 0.919290 0.055000
0.922993 0.920940 0.055000
1.000000 0.921616 0.055000
0.000000 0.921820 0.055000
0.039331 0.922115 0.055000
0.079060 0.922993 0.055000
0.119328 0.924442 0.055000
0.161440 0.926414 0.055000
0.204612 0.928821 0.055000
0.249616 0.931593 0.055000
0.294975 0.934719 0.055000
0.342704 0.937983 0.055000
0.393672 0.941391 0.055000
0.447640 0.944669 0.055000
0.504462 0.948017 0.055000
0.564684 0.951134 0.055000
0.629910 0.953885 0.055000
0.699485 0.956376 0.055000
0.771410 0.958317 0.055000
0.845918 0.959812 0.055000
0.922116 0.960669 0.055000
1.000000 0.961019 0.055000
0.000000 1.000000 0.055000
0.038981 1.000000 0.055000
0.078384 1.000000 0.055000
0.118405 1.000000 0.055000
0.160334 1.000000 0.055000
0.203249 1.000000 0.055000
0.248000 1.000000 0.055000
0.293473 1.000000 0.055000
0.341235 1.000000 0.055000
0.391997 1.000000 0.055000
0.446114 1.000000 0.055000
0.502950 1.000000 0.055000
0.563179 1.000000 0.055000
0.628816 1.000000 0.055000
0.698502 1.000000 0.055000
0.770624 1.000000 0.055000
0.845393 1.000000 0.055000
0.921820 1.000000 0.055000
1.000000 1.000000 0.055000
0.000000 0.000000 0.110000
0.078179 0.000000 0.110000
0.154607 0.000000 0.110000
0.229376 0.000000 0.110000
0.301498 0.000000 0.110000
0.371184 0.000000 0.110000
0.436821 0.000000 0.110000
0.497050 0.000000 0.110000
0.553886 0.000000 0.110000
0.608003 0.000000 0.110000
0.658765 0.000000 0.110000
0.706527 0.000000 0.110000
0.752000 0.000000 0.110000
0.796751 0.000000 0.110000
0.839666 0.000000 0.110000
0.881595 0.000000 0.110000
0.921616 0.000000 0.110000