# vtk DataFile Version 2.0
Mesh for Fierro
ASCII 
DATASET UNSTRUCTURED_GRID

POINTS 2527 float
0.000000 0.000000 0.000000
0.398408 0.000000 0.000000
0.648514 0.000000 0.000000
0.741095 0.000000 0.000000
0.811753 0.000000 0.000000
0.850381 0.000000 0.000000
0.876915 0.000000 0.000000
0.897487 0.000000 0.000000
0.914155 0.000000 0.000000
0.927713 0.000000 0.000000
0.938432 0.000000 0.000000
0.947868 0.000000 0.000000
0.955969 0.000000 0.000000
0.963545 0.000000 0.000000
0.970594 0.000000 0.000000
0.977730 0.000000 0.000000
0.985066 0.000000 0.000000
0.992473 0.000000 0.000000
1.000000 0.000000 0.000000
0.000000 0.007481 0.000000
0.397340 0.008431 0.000000
0.642167 0.022793 0.000000
0.736938 0.037658 0.000000
0.808045 0.060575 0.000000
0.846277 0.095360 0.000000
0.873121 0.130921 0.000000
0.892312 0.164572 0.000000
0.907986 0.199438 0.000000
0.920611 0.235888 0.000000
0.931509 0.267647 0.000000
0.940887 0.300220 0.000000
0.949353 0.330525 0.000000
0.957917 0.352221 0.000000
0.966280 0.369978 0.000000
0.974751 0.382998 0.000000
0.983170 0.390311 0.000000
0.991551 0.397401 0.000000
1.000000 0.398281 0.000000
0.000000 0.014924 0.000000
0.390253 0.016802 0.000000
0.630574 0.043591 0.000000
0.731070 0.073141 0.000000
0.797456 0.115497 0.000000
0.833133 0.173425 0.000000
0.856529 0.235686 0.000000
0.873699 0.290236 0.000000
0.885012 0.346512 0.000000
0.892245 0.399723 0.000000
0.896937 0.448031 0.000000
0.900435 0.491592 0.000000
0.904618 0.530724 0.000000
0.913093 0.562322 0.000000
0.923763 0.590420 0.000000
0.938607 0.613128 0.000000
0.956437 0.630468 0.000000
0.977220 0.642174 0.000000
1.000000 0.648564 0.000000
0.000000 0.022301 0.000000
0.382999 0.025235 0.000000
0.613130 0.061406 0.000000
0.716871 0.103488 0.000000
0.777644 0.162534 0.000000
0.809507 0.231746 0.000000
0.824881 0.308649 0.000000
0.837553 0.369291 0.000000
0.837872 0.437607 0.000000
0.836950 0.494893 0.000000
0.833842 0.549877 0.000000
0.835248 0.597277 0.000000
0.838660 0.640638 0.000000
0.852287 0.672223 0.000000
0.870221 0.699347 0.000000
0.896501 0.716887 0.000000
0.926861 0.731064 0.000000
0.962318 0.736924 0.000000
1.000000 0.741105 0.000000
0.000000 0.029483 0.000000
0.370045 0.033723 0.000000
0.590448 0.076286 0.000000
0.699359 0.129776 0.000000
0.752447 0.200751 0.000000
0.781665 0.278432 0.000000
0.786888 0.363651 0.000000
0.794863 0.429842 0.000000
0.782396 0.500902 0.000000
0.775012 0.557072 0.000000
0.766249 0.607156 0.000000
0.764855 0.649056 0.000000
0.762006 0.687642 0.000000
0.776884 0.721212 0.000000
0.799223 0.752469 0.000000
0.837486 0.777609 0.000000
0.884500 0.797461 0.000000
0.939451 0.808062 0.000000
1.000000 0.811804 0.000000
0.000000 0.036543 0.000000
0.352134 0.042079 0.000000
0.562268 0.086917 0.000000
0.672194 0.147697 0.000000
0.721232 0.223097 0.000000
0.747112 0.303861 0.000000
0.745838 0.387825 0.000000
0.747486 0.456311 0.000000
0.725537 0.520323 0.000000
0.710834 0.574593 0.000000
0.693940 0.623668 0.000000
0.687022 0.667555 0.000000
0.680240 0.708741 0.000000
0.696119 0.747118 0.000000
0.721585 0.781634 0.000000
0.768249 0.809531 0.000000
0.826577 0.833148 0.000000
0.904597 0.846270 0.000000
1.000000 0.850372 0.000000
0.000000 0.044077 0.000000
0.330602 0.050656 0.000000
0.530731 0.095434 0.000000
0.640670 0.161352 0.000000
0.687648 0.238025 0.000000
0.708728 0.319694 0.000000
0.703936 0.401590 0.000000
0.696142 0.469988 0.000000
0.665202 0.527354 0.000000
0.645946 0.579376 0.000000
0.621241 0.624303 0.000000
0.612058 0.665954 0.000000
0.598409 0.703946 0.000000
0.612145 0.745876 0.000000
0.636424 0.786939 0.000000
0.691394 0.824929 0.000000
0.764252 0.856527 0.000000
0.868997 0.873026 0.000000
1.000000 0.876794 0.000000
0.000000 0.052202 0.000000
0.300152 0.059121 0.000000
0.491499 0.099549 0.000000
0.597315 0.164747 0.000000
0.649019 0.235156 0.000000
0.667545 0.312983 0.000000
0.665950 0.387953 0.000000
0.653129 0.453189 0.000000
0.622157 0.505980 0.000000
0.594494 0.558807 0.000000
0.565362 0.605668 0.000000
0.546792 0.653111 0.000000
0.529998 0.696114 0.000000
0.543680 0.747473 0.000000
0.570127 0.794871 0.000000
0.630746 0.837533 0.000000
0.709816 0.873789 0.000000
0.835457 0.892279 0.000000
1.000000 0.897225 0.000000
0.000000 0.061693 0.000000
0.267598 0.068506 0.000000
0.448063 0.103084 0.000000
0.549893 0.166167 0.000000
0.607137 0.233700 0.000000
0.623643 0.306049 0.000000
0.624316 0.378703 0.000000
0.605684 0.434643 0.000000
0.576695 0.482903 0.000000
0.547147 0.531547 0.000000
0.517098 0.576726 0.000000
0.493999 0.622149 0.000000
0.472569 0.665181 0.000000
0.479713 0.725553 0.000000
0.499065 0.782423 0.000000
0.562394 0.837878 0.000000
0.653260 0.884978 0.000000
0.800424 0.907933 0.000000
1.000000 0.913953 0.000000
0.000000 0.072396 0.000000
0.235989 0.079418 0.000000
0.399647 0.107715 0.000000
0.494906 0.163031 0.000000
0.557112 0.225063 0.000000
0.574573 0.289133 0.000000
0.579414 0.354132 0.000000
0.558797 0.405546 0.000000
0.531518 0.452855 0.000000
0.499992 0.500023 0.000000
0.468441 0.547160 0.000000
0.441194 0.594479 0.000000
0.420644 0.645914 0.000000
0.425434 0.710873 0.000000
0.442870 0.774966 0.000000
0.505022 0.836904 0.000000
0.600257 0.892292 0.000000
0.763860 0.920609 0.000000
1.000000 0.927347 0.000000
0.000000 0.085909 0.000000
0.199599 0.092044 0.000000
0.346694 0.115034 0.000000
0.437629 0.162125 0.000000
0.500879 0.217546 0.000000
0.520321 0.274468 0.000000
0.527429 0.334810 0.000000
0.505992 0.377828 0.000000
0.482873 0.423298 0.000000
0.452875 0.468468 0.000000
0.423290 0.517103 0.000000
0.394304 0.565389 0.000000
0.375665 0.621245 0.000000
0.376398 0.693961 0.000000
0.392795 0.766318 0.000000
0.450193 0.833885 0.000000
0.551851 0.896969 0.000000
0.732281 0.931452 0.000000
1.000000 0.938053 0.000000
0.000000 0.102514 0.000000
0.164575 0.107664 0.000000
0.290284 0.126277 0.000000
0.369309 0.162459 0.000000
0.429860 0.205131 0.000000
0.456283 0.252504 0.000000
0.469996 0.303863 0.000000
0.453231 0.346864 0.000000
0.434618 0.394320 0.000000
0.405520 0.441201 0.000000
0.377859 0.494013 0.000000
0.346871 0.546800 0.000000
0.334060 0.612072 0.000000
0.332456 0.686996 0.000000
0.350959 0.764872 0.000000
0.402688 0.835272 0.000000
0.508560 0.900563 0.000000
0.699950 0.940915 0.000000
1.000000 0.947685 0.000000
0.000000 0.123140 0.000000
0.130902 0.126883 0.000000
0.235594 0.143426 0.000000
0.308686 0.175070 0.000000
0.363647 0.213115 0.000000
0.387843 0.254204 0.000000
0.401536 0.296104 0.000000
0.387950 0.334094 0.000000
0.378750 0.375676 0.000000
0.354102 0.420628 0.000000
0.334821 0.472576 0.000000
0.303864 0.530003 0.000000
0.296097 0.598441 0.000000
0.291230 0.680223 0.000000
0.312408 0.762024 0.000000
0.359324 0.838684 0.000000
0.469320 0.904634 0.000000
0.669524 0.949409 0.000000
1.000000 0.955769 0.000000
0.000000 0.149589 0.000000
0.095449 0.153703 0.000000
0.173411 0.166897 0.000000
0.231794 0.190430 0.000000
0.278382 0.218303 0.000000
0.303850 0.252827 0.000000
0.319757 0.291237 0.000000
0.313004 0.332454 0.000000
0.306033 0.376394 0.000000
0.289123 0.425437 0.000000
0.274448 0.479675 0.000000
0.252511 0.543688 0.000000
0.254193 0.612156 0.000000
0.252837 0.696137 0.000000
0.278878 0.776899 0.000000
0.327721 0.852324 0.000000
0.437836 0.913101 0.000000
0.647713 0.957999 0.000000
1.000000 0.963301 0.000000
0.000000 0.188159 0.000000
0.060557 0.191901 0.000000
0.115468 0.202512 0.000000
0.162560 0.222412 0.000000
0.200797 0.247637 0.000000
0.223131 0.278882 0.000000
0.237996 0.312412 0.000000
0.235093 0.350974 0.000000
0.233702 0.392804 0.000000
0.225018 0.442855 0.000000
0.217606 0.499057 0.000000
0.205138 0.570147 0.000000
0.213124 0.636360 0.000000
0.218321 0.721606 0.000000
0.247637 0.799186 0.000000
0.300540 0.870259 0.000000
0.409761 0.923734 0.000000
0.629775 0.966332 0.000000
1.000000 0.970411 0.000000
0.000000 0.258882 0.000000
0.037667 0.263093 0.000000
0.073098 0.269008 0.000000
0.103453 0.283061 0.000000
0.129746 0.300553 0.000000
0.147677 0.327721 0.000000
0.161278 0.359361 0.000000
0.164725 0.402698 0.000000
0.166121 0.450182 0.000000
0.163136 0.504976 0.000000
0.162123 0.562420 0.000000
0.162464 0.630728 0.000000
0.175077 0.691333 0.000000
0.190444 0.768235 0.000000
0.222410 0.837435 0.000000
0.283069 0.896550 0.000000
0.386925 0.938516 0.000000
0.616374 0.974775 0.000000
1.000000 0.977502 0.000000
0.000000 0.351617 0.000000
0.022807 0.357769 0.000000
0.043644 0.369432 0.000000
0.061504 0.386938 0.000000
0.076292 0.409745 0.000000
0.086920 0.437839 0.000000
0.095397 0.469331 0.000000
0.099468 0.508561 0.000000
0.103086 0.551792 0.000000
0.107734 0.600252 0.000000
0.115030 0.653250 0.000000
0.126228 0.709830 0.000000
0.143463 0.764236 0.000000
0.166862 0.826571 0.000000
0.202514 0.884522 0.000000
0.269003 0.926886 0.000000
0.369447 0.956384 0.000000
0.609117 0.983189 0.000000
1.000000 0.984855 0.000000
0.000000 0.601565 0.000000
0.008417 0.602305 0.000000
0.016804 0.609085 0.000000
0.025207 0.616355 0.000000
0.033649 0.629674 0.000000
0.042012 0.647554 0.000000
0.050608 0.669266 0.000000
0.059073 0.699815 0.000000
0.068593 0.732134 0.000000
0.079384 0.763865 0.000000
0.092070 0.800359 0.000000
0.107707 0.835453 0.000000
0.126930 0.868943 0.000000
0.153718 0.904560 0.000000
0.191922 0.939443 0.000000
0.263078 0.962314 0.000000
0.357732 0.977198 0.000000
0.602391 0.991596 0.000000
1.000000 0.992478 0.000000
0.000000 1.000000 0.000000
0.007547 1.000000 0.000000
0.015153 1.000000 0.000000
0.022507 1.000000 0.000000
0.029613 1.000000 0.000000
0.036763 1.000000 0.000000
0.044249 1.000000 0.000000
0.052328 1.000000 0.000000
0.061991 1.000000 0.000000
0.072670 1.000000 0.000000
0.086082 1.000000 0.000000
0.102840 1.000000 0.000000
0.123182 1.000000 0.000000
0.149631 1.000000 0.000000
0.188184 1.000000 0.000000
0.258854 1.000000 0.000000
0.351575 1.000000 0.000000
0.601638 1.000000 0.000000
1.000000 1.000000 0.000000
0.000000 0.000000 0.055180
0.398580 0.000000 0.055054
0.648264 0.000000 0.055027
0.741051 0.000000 0.055015
0.811803 0.000000 0.054975
[...]
POINT_DATA 2527 
VECTORS pos float 
0.000000 0.000000 0.000000
0.398408 0.000000 0.000000
0.648514 0.000000 0.000000
0.741095 0.000000 0.000000
0.811753 0.000000 0.000000
0.850381 0.000000 0.000000
0.876915 0.000000 0.000000
0.897487 0.000000 0.000000
0.914155 0.000000 0.000000
0.927713 0.000000 0.000000
0.938432 0.000000 0.000000
0.947868 0.000000 0.000000
0.955969 0.000000 0.000000
0.963545 0.000000 0.000000
0.970594 0.000000 0.000000
0.977730 0.000000 0.000000
0.985066 0.000000 0.000000
0.992473 0.000000 0.000000
1.000000 0.000000 0.000000
0.000000 0.007481 0.000000
0.397340 0.008431 0.000000
0.642167 0.022793 0.000000
0.736938 0.037658 0.000000
0.808045 0.060575 0.000000
0.846277 0.095360 0.000000
0.873121 0.130921 0.000000
0.892312 0.164572 0.000000
0.907986 0.199438 0.000000
0.920611 0.235888 0.000000
0.931509 0.267647 0.000000
0.940887 0.300220 0.000000
0.949353 0.330525 0.000000
0.957917 0.352221 0.000000
0.966280 0.369978 0.000000
0.974751 0.382998 0.000000
0.983170 0.390311 0.000000
0.991551 0.397401 0.000000
1.000000 0.398281 0.000000
0.000000 0.014924 0.000000
0.390253 0.016802 0.000000
0.630574 0.043591 0.000000
0.731070 0.073141 0.000000
0.797456 0.115497 0.000000
0.833133 0.173425 0.000000
0.856529 0.235686 0.000000
0.873699 0.290236 0.000000
0.885012 0.346512 0.000000
0.892245 0.399723 0.000000
0.896937 0.448031 0.000000
0.900435 0.491592 0.000000
0.904618 0.530724 0.000000
0.913093 0.562322 0.000000
0.923763 0.590420 0.000000
0.938607 0.613128 0.000000
0.956437 0.630468 0.000000
0.977220 0.642174 0.000000
1.000000 0.648564 0.000000
0.000000 0.022301 0.000000
0.382999 0.025235 0.000000
0.613130 0.061406 0.000000
0.716871 0.103488 0.000000
0.777644 0.162534 0.000000
0.809507 0.231746 0.000000
0.824881 0.308649 0.000000
0.837553 0.369291 0.000000
0.837872 0.437607 0.000000
0.836950 0.494893 0.000000
0.833842 0.549877 0.000000
0.835248 0.597277 0.000000
0.838660 0.640638 0.000000
0.852287 0.672223 0.000000
0.870221 0.699347 0.000000
0.896501 0.716887 0.000000
0.926861 0.731064 0.000000
0.962318 0.736924 0.000000
1.000000 0.741105 0.000000
0.000000 0.029483 0.000000
0.370045 0.033723 0.000000
0.590448 0.076286 0.000000
0.699359 0.129776 0.000000
0.752447 0.200751 0.000000
0.781665 0.278432 0.000000
0.786888 0.363651 0.000000
0.794863 0.429842 0.000000
0.782396 0.500902 0.000000
0.775012 0.557072 0.000000
0.766249 0.607156 0.000000
0.764855 0.649056 0.000000
0.762006 0.687642 0.000000
0.776884 0.721212 0.000000
0.799223 0.752469 0.000000
0.837486 0.777609 0.000000
0.884500 0.797461 0.000000
0.939451 0.808062 0.000000
1.000000 0.811804 0.000000
0.000000 0.036543 0.000000
0.352134 0.042079 0.000000
0.562268 0.086917 0.000000
0.672194 0.147697 0.000000
0.721232 0.223097 0.000000
0.747112 0.303861 0.000000
0.745838 0.387825 0.000000
0.747486 0.456311 0.000000
0.725537 0.520323 0.000000
0.710834 0.574593 0.000000
0.693940 0.623668 0.000000
0.687022 0.667555 0.000000
0.680240 0.708741 0.000000
0.696119 0.747118 0.000000
0.721585 0.781634 0.000000
0.768249 0.809531 0.000000
0.826577 0.833148 0.000000
0.904597 0.846270 0.000000
1.000000 0.850372 0.000000
0.000000 0.044077 0.000000
0.330602 0.050656 0.000000
0.530731 0.095434 0.000000
0.640670 0.161352 0.000000
0.687648 0.238025 0.000000
0.708728 0.319694 0.000000
0.703936 0.401590 0.000000
0.696142 0.469988 0.000000
0.665202 0.527354 0.000000
0.645946 0.579376 0.000000
0.621241 0.624303 0.000000
0.612058 0.665954 0.000000
0.598409 0.703946 0.000000
0.612145 0.745876 0.000000
0.636424 0.786939 0.000000
0.691394 0.824929 0.000000
0.764252 0.856527 0.000000
0.868997 0.873026 0.000000
1.000000 0.876794 0.000000
0.000000 0.052202 0.000000
0.300152 0.059121 0.000000
0.491499 0.099549 0.000000
0.597315 0.164747 0.000000
0.649019 0.235156 0.000000
0.667545 0.312983 0.000000
0.665950 0.387953 0.000000
0.653129 0.453189 0.000000
0.622157 0.505980 0.000000
0.594494 0.558807 0.000000
0.565362 0.605668 0.000000
0.546792 0.653111 0.000000
0.529998 0.696114 0.000000
0.543680 0.747473 0.000000
0.570127 0.794871 0.000000
0.630746 0.837533 0.000000
0.709816 0.873789 0.000000
0.835457 0.892279 0.000000
1.000000 0.897225 0.000000
0.000000 0.061693 0.000000
0.267598 0.068506 0.000000
0.448063 0.103084 0.000000
0.549893 0.166167 0.000000
0.607137 0.233700 0.000000
0.623643 0.306049 0.000000
0.624316 0.378703 0.000000
0.605684 0.434643 0.000000
0.576695 0.482903 0.000000
0.547147 0.531547 0.000000
0.517098 0.576726 0.000000
0.493999 0.622149 0.000000
0.472569 0.665181 0.000000
0.479713 0.725553 0.000000
0.499065 0.782423 0.000000
0.562394 0.837878 0.000000
0.653260 0.884978 0.000000
0.800424 0.907933 0.000000
1.000000 0.913953 0.000000
0.000000 0.072396 0.000000
0.235989 0.079418 0.000000
0.399647 0.107715 0.000000
0.494906 0.163031 0.000000
0.557112 0.225063 0.000000
0.574573 0.289133 0.000000
0.579414 0.354132 0.000000
0.558797 0.405546 0.000000
0.531518 0.452855 0.000000
0.499992 0.500023 0.000000
0.468441 0.547160 0.000000
0.441194 0.594479 0.000000
0.420644 0.645914 0.000000
0.425434 0.710873 0.000000
0.442870 0.774966 0.000000
0.505022 0.836904 0.000000
0.600257 0.892292 0.000000
0.763860 0.920609 0.000000
1.000000 0.927347 0.000000
0.000000 0.085909 0.000000
0.199599 0.092044 0.000000
0.346694 0.115034 0.000000
0.437629 0.162125 0.000000
0.500879 0.217546 0.000000
0.520321 0.274468 0.000000
0.527429 0.334810 0.000000
0.505992 0.377828 0.000000
0.482873 0.423298 0.000000
0.452875 0.468468 0.000000
0.423290 0.517103 0.000000
0.394304 0.565389 0.000000
0.375665 0.621245 0.000000
0.376398 0.693961 0.000000
0.392795 0.766318 0.000000
0.450193 0.833885 0.000000
0.551851 0.896969 0.000000
0.732281 0.931452 0.000000
1.000000 0.938053 0.000000
0.000000 0.102514 0.000000
0.164575 0.107664 0.000000
0.290284 0.126277 0.000000
0.369309 0.162459 0.000000
0.429860 0.205131 0.000000
0.456283 0.252504 0.000000
0.469996 0.303863 0.000000
0.453231 0.346864 0.000000
0.434618 0.394320 0.000000
0.405520 0.441201 0.000000
0.377859 0.494013 0.000000
0.346871 0.546800 0.000000
0.334060 0.612072 0.000000
0.332456 0.686996 0.000000
0.350959 0.764872 0.000000
0.402688 0.835272 0.000000
0.508560 0.900563 0.000000
0.699950 0.940915 0.000000
1.000000 0.947685 0.000000
0.000000 0.123140 0.000000
0.130902 0.126883 0.000000
0.235594 0.143426 0.000000
0.308686 0.175070 0.000000
0.363647 0.213115 0.000000
0.387843 0.254204 0.000000
0.401536 0.296104 0.000000
0.387950 0.334094 0.000000
0.378750 0.375676 0.000000
0.354102 0.420628 0.000000
0.334821 0.472576 0.000000
0.303864 0.530003 0.000000
0.296097 0.598441 0.000000
0.291230 0.680223 0.000000
0.312408 0.762024 0.000000
0.359324 0.838684 0.000000
0.469320 0.904634 0.000000
0.669524 0.949409 0.000000
1.000000 0.955769 0.000000
0.000000 0.149589 0.000000
0.095449 0.153703 0.000000
0.173411 0.166897 0.000000
0.231794 0.190430 0.000000
0.278382 0.218303 0.000000
0.303850 0.252827 0.000000
0.319757 0.291237 0.000000
0.313004 0.332454 0.000000
0.306033 0.376394 0.000000
0.289123 0.425437 0.000000
0.274448 0.479675 0.000000
0.252511 0.543688 0.000000
0.254193 0.612156 0.000000
0.252837 0.696137 0.000000
0.278878 0.776899 0.000000
0.327721 0.852324 0.000000
0.437836 0.913101 0.000000
0.647713 0.957999 0.000000
1.000000 0.963301 0.000000
0.000000 0.188159 0.000000
0.060557 0.191901 0.000000
0.115468 0.202512 0.000000
0.162560 0.222412 0.000000
0.200797 0.247637 0.000000
0.223131 0.278882 0.000000
0.237996 0.312412 0.000000
0.235093 0.350974 0.000000
0.233702 0.392804 0.000000
0.225018 0.442855 0.000000
0.217606 0.499057 0.000000
0.205138 0.570147 0.000000
0.213124 0.636360 0.000000
0.218321 0.721606 0.000000
0.247637 0.799186 0.000000
0.300540 0.870259 0.000000
0.409761 0.923734 0.000000
0.629775 0.966332 0.000000
1.000000 0.970411 0.000000
0.000000 0.258882 0.000000
0.037667 0.263093 0.000000
0.073098 0.269008 0.000000
0.103453 0.283061 0.000000
0.129746 0.300553 0.000000
0.147677 0.327721 0.000000
0.161278 0.359361 0.000000
0.164725 0.402698 0.000000
0.166121 0.450182 0.000000
0.163136 0.504976 0.000000
0.162123 0.562420 0.000000
0.162464 0.630728 0.000000
0.175077 0.691333 0.000000
0.190444 0.768235 0.000000
0.222410 0.837435 0.000000
0.283069 0.896550 0.000000
0.386925 0.938516 0.000000
0.616374 0.974775 0.000000
1.000000 0.977502 0.000000
0.000000 0.351617 0.000000
0.022807 0.357769 0.000000
0.043644 0.369432 0.000000
0.061504 0.386938 0.000000
0.076292 0.409745 0.000000
0.086920 0.437839 0.000000
0.095397 0.469331 0.000000
0.099468 0.508561 0.000000
0.103086 0.551792 0.000000
0.107734 0.600252 0.000000
0.115030 0.653250 0.000000
0.126228 0.709830 0.000000
0.143463 0.764236 0.000000
0.166862 0.826571 0.000000
0.202514 0.884522 0.000000
0.269003 0.926886 0.000000
0.369447 0.956384 0.000000
0.609117 0.983189 0.000000
1.000000 0.984855 0.000000
0.000000 0.601565 0.000000
0.008417 0.602305 0.000000
0.016804 0.609085 0.000000
0.025207 0.616355 0.000000
0.033649 0.629674 0.000000
0.042012 0.647554 0.000000
0.050608 0.669266 0.000000
0.059073 0.699815 0.000000
0.068593 0.732134 0.000000
0.079384 0.763865 0.000000
0.092070 0.800359 0.000000
0.107707 0.835453 0.000000
0.126930 0.868943 0.000000
0.153718 0.904560 0.000000
0.191922 0.939443 0.000000
0.263078 0.962314 0.000000
0.357732 0.977198 0.000000
0.602391 0.991596 0.000000
1.000000 0.992478 0.000000
0.000000 1.000000 0.000000
0.007547 1.000000 0.000000
0.015153 1.000000 0.000000
0.022507 1.000000 0.000000
0.029613 1.000000 0.000000
0.036763 1.000000 0.000000
0.044249 1.000000 0.000000
0.052328 1.000000 0.000000
0.061991 1.000000 0.000000
0.072670 1.000000 0.000000
0.086082 1.000000 0.000000
0.102840 1.000000 0.000000
0.123182 1.000000 0.000000
0.149631 1.000000 0.000000
0.188184 1.000000 0.000000
0.258854 1.000000 0.000000
0.351575 1.000000 0.000000
0.601638 1.000000 0.000000
1.000000 1.000000 0.000000
0.000000 0.000000 0.055180
0.398580 0.000000 0.055054
0.648264 0.000000 0.055027
0.741051 0.000000 0.055015
0.811803 0.000000 0.054975
0.850428 0.000000 0.055006
0.876921 0.000000 0.055007
0.897263 0.000000 0.054949
0.913973 0.000000 0.055045
0.927445 0.000000 0.055052
0.938113 0.000000 0.055086
0.947707 0.000000 0.054938
0.955847 0.000000 0.054990
0.963365 0.000000 0.054915
0.970420 0.000000 0.055050
0.977596 0.000000 0.054972
0.984963 0.000000 0.055081
0.992536 0.000000 0.055130
1.000000 0.000000 0.055088
0.000000 0.007484 0.055197
0.397746 0.008428 0.055062
0.642131 0.022818 0.054996
0.736903 0.037641 0.054987
0.808080 0.060596 0.055001
0.846303 0.095368 0.054977
0.873086 0.130863 0.055002
0.892299 0.164647 0.055002
0.907942 0.199643 0.054992
0.920619 0.236230 0.054959
0.931468 0.267812 0.055001
0.940934 0.300001 0.054968
0.949369 0.330836 0.054960
0.957948 0.352584 0.055014
0.966294 0.370461 0.055015
0.974773 0.383405 0.055013
0.983199 0.390765 0.055049
0.991587 0.397778 0.055032
1.000000 0.398718 0.055054
0.000000 0.015039 0.055089
0.390702 0.016814 0.055054
0.630625 0.043653 0.054997
0.731016 0.073100 0.054996
0.797485 0.115533 0.054975
0.833178 0.173422 0.055008
0.856564 0.235631 0.054981
0.873778 0.290285 0.055006
0.885010 0.346740 0.054963
0.892285 0.399732 0.054977
0.896987 0.447995 0.055010
0.900578 0.491276 0.055001
0.904490 0.530791 0.055001
0.912994 0.562189 0.054990
0.923666 0.590277 0.055012
0.938501 0.613114 0.055003
0.956347 0.630579 0.055008
0.977176 0.642142 0.055010
1.000000 0.648272 0.055005
0.000000 0.022388 0.054956
0.383401 0.025233 0.054987
0.613114 0.061476 0.054993
0.716846 0.103454 0.054976
0.777654 0.162551 0.055016
0.809539 0.231785 0.054997
0.824963 0.308626 0.055012
0.837554 0.369315 0.055001
0.837882 0.437597 0.055002
0.836940 0.494961 0.055025
0.833870 0.549846 0.054996
0.835267 0.597241 0.055010
0.838610 0.640742 0.055006
0.852355 0.672278 0.054975
0.870278 0.699421 0.054991
0.896572 0.716853 0.054977
0.926914 0.731021 0.054977
0.962361 0.736898 0.054986
1.000000 0.741036 0.054997
0.000000 0.029525 0.054964
0.370409 0.033698 0.054980
0.590293 0.076296 0.054993
0.699398 0.129738 0.054998
0.752406 0.200776 0.054994
0.781650 0.278384 0.054997
0.786928 0.363616 0.054999
0.794876 0.429853 0.055004
0.782442 0.500975 0.054999
0.774999 0.557089 0.054996
0.766280 0.607154 0.055004
0.764908 0.649006 0.055004
0.762015 0.687591 0.055019
0.776896 0.721136 0.055020
0.799227 0.752388 0.054992
0.837437 0.777643 0.055025
0.884450 0.797480 0.055010
0.939414 0.808075 0.055006
1.000000 0.811800 0.054976
0.000000 0.036573 0.054876
0.352661 0.042058 0.054974
0.562219 0.086998 0.054994
0.672275 0.147653 0.054988
0.721130 0.223118 0.055012
0.747165 0.303862 0.054988
0.745804 0.387887 0.055000
0.747502 0.456337 0.055012
0.725522 0.520348 0.055012
0.710869 0.574582 0.054992
0.693981 0.623652 0.054997
0.686958 0.667554 0.055016
0.680314 0.708756 0.054992
0.696139 0.747171 0.054986
0.721617 0.781669 0.054999
0.768193 0.809538 0.054980
0.826594 0.833157 0.054990
0.904640 0.846311 0.054986
1.000000 0.850458 0.055015
0.000000 0.044084 0.054947
0.330759 0.050646 0.054940
0.530785 0.095493 0.055030
0.640742 0.161393 0.055007
0.687598 0.238004 0.054998
0.708767 0.319719 0.055003
0.703900 0.401498 0.055008
0.696152 0.469982 0.054999
0.665160 0.527403 0.054993
0.645930 0.579387 0.054997
0.621240 0.624301 0.055004
0.611994 0.665894 0.054989
0.598503 0.703895 0.055013
0.612144 0.745793 0.054986
0.636368 0.786914 0.054999
0.691326 0.824952 0.054999
0.764371 0.856555 0.055009
0.869090 0.873103 0.054996
1.000000 0.876946 0.054989
0.000000 0.052217 0.054959
0.300063 0.059077 0.054976
0.491318 0.099437 0.055003
0.597223 0.164718 0.055018
0.649003 0.235076 0.054986
0.667544 0.313020 0.055010
0.665924 0.387974 0.054994
0.653131 0.453192 0.054999
0.622162 0.505969 0.054993
0.594498 0.558814 0.055001
0.565375 0.605650 0.055006
0.546782 0.653132 0.054999
0.530027 0.696155 0.054991
0.543683 0.747502 0.055005
0.570137 0.794864 0.055001
0.630686 0.837570 0.054989
0.709717 0.873758 0.054993
0.835340 0.892316 0.055010
1.000000 0.897424 0.055037
0.000000 0.061869 0.055063
0.267699 0.068503 0.055013
0.448022 0.103020 0.055030
0.549840 0.166154 0.055006
0.607145 0.233669 0.055030
0.623636 0.306014 0.055011
0.624319 0.378756 0.055016
0.605662 0.434643 0.054986
0.576704 0.482897 0.054995
0.547151 0.531523 0.055006
0.517106 0.576706 0.055008
0.494055 0.622162 0.055004
0.472599 0.665182 0.055011
0.479657 0.725518 0.055024
0.499063 0.782434 0.055007
0.562401 0.837872 0.054978
0.653238 0.884991 0.054999
0.800326 0.907987 0.055019
1.000000 0.914114 0.054980
0.000000 0.072538 0.055032
0.236178 0.079389 0.054971
0.399662 0.107686 0.055019
0.494959 0.163057 0.054995
0.557108 0.225053 0.055012
0.574602 0.289151 0.055000
0.579374 0.354102 0.055010
0.558821 0.405507 0.055004
0.531535 0.452850 0.055005
0.499995 0.500011 0.054999
0.468462 0.547155 0.055007
0.441182 0.594516 0.055007
0.420614 0.645909 0.054995
0.425437 0.710896 0.054984
0.442887 0.774987 0.055008
0.505044 0.836945 0.055015
0.600296 0.892282 0.055011
0.763883 0.920609 0.055020
1.000000 0.927584 0.055092
0.000000 0.086001 0.055062
0.199697 0.092058 0.054979
0.346719 0.115003 0.054998
0.437622 0.162097 0.055000
0.500933 0.217541 0.054997
0.520340 0.274463 0.054975
0.527415 0.334824 0.055008
0.505959 0.377841 0.054995
0.482895 0.423308 0.054983
0.452862 0.468468 0.055013
0.423304 0.517114 0.054986
0.394332 0.565354 0.055008
0.375684 0.621223 0.054998
0.376364 0.693938 0.055000
0.392827 0.766293 0.054981
0.450157 0.833878 0.054987
0.552018 0.896974 0.054991
0.732412 0.931478 0.054987
1.000000 0.938278 0.055004
0.000000 0.102725 0.054957
0.164644 0.107701 0.055014
0.290291 0.126233 0.055009
0.369311 0.162463 0.055003
0.429869 0.205122 0.054992
0.456314 0.252499 0.054999
0.469979 0.303836 0.054998
0.453226 0.346862 0.054996
0.434634 0.394341 0.055000
0.405485 0.441181 0.055003
0.377845 0.494054 0.054998
0.346841 0.546786 0.054987
0.334091 0.612042 0.055027
0.332468 0.687015 0.055002
0.350971 0.764880 0.055024
0.402780 0.835297 0.054991
0.508584 0.900509 0.055000
0.699985 0.940897 0.054977
1.000000 0.947887 0.055014
0.000000 0.123077 0.055016
0.130841 0.126948 0.055009
0.235595 0.143431 0.054996
0.308605 0.175035 0.055019
0.363605 0.213093 0.055015
0.387852 0.254194 0.055018
0.401481 0.296093 0.054970
0.387998 0.334090 0.055010
0.378761 0.375688 0.054993
0.354069 0.420624 0.055003
0.334825 0.472599 0.054999
0.303831 0.530012 0.054981
0.296092 0.598505 0.055010
0.291257 0.680299 0.055019
0.312349 0.761970 0.054971
0.359342 0.838636 0.055007
0.469180 0.904537 0.054988
0.669469 0.949351 0.055012
1.000000 0.955988 0.054973
0.000000 0.149553 0.055005
0.095417 0.153709 0.055001
0.173441 0.166873 0.054973
0.231797 0.190468 0.054979
0.278396 0.218337 0.054987
0.303904 0.252847 0.054996
0.319647 0.291268 0.054999
0.313005 0.332454 0.054992
0.306028 0.376350 0.055014
0.289136 0.425412 0.055005
0.274471 0.479659 0.054982
0.252488 0.543700 0.054997
0.254201 0.612147 0.055008
0.252835 0.696116 0.054990
0.278836 0.776934 0.055002
0.327750 0.852321 0.054997
0.437689 0.913010 0.055005
0.647690 0.957920 0.055006
1.000000 0.963514 0.054998
0.000000 0.188162 0.054995
0.060556 0.191898 0.055006
0.115495 0.202530 0.055014
0.162526 0.222395 0.054998
0.200805 0.247589 0.055001
0.223077 0.278839 0.055000
0.237977 0.312364 0.055000
0.235105 0.350975 0.055010
0.233697 0.392845 0.054996
0.225023 0.442862 0.055029
0.217555 0.499043 0.054994
0.205123 0.570129 0.054991
0.213093 0.636400 0.055013
0.218337 0.721598 0.055000
0.247596 0.799224 0.054993
0.300604 0.870274 0.054990
0.409588 0.923673 0.055002
0.629733 0.966260 0.055029
1.000000 0.970560 0.054970
0.000000 0.258909 0.054983
0.037654 0.263067 0.054991
0.073115 0.268930 0.054992
0.103452 0.283116 0.055014
0.129744 0.300601 0.054984
0.147657 0.327784 0.054998
0.161340 0.359356 0.055006
0.164713 0.402759 0.055011
0.166111 0.450159 0.055000
0.163054 0.505049 0.055012
0.162111 0.562409 0.054985
0.162457 0.630673 0.055008
0.175053 0.691380 0.055009
0.190456 0.768204 0.054972
0.222383 0.837446 0.055006
0.283132 0.896562 0.055003
0.386895 0.938555 0.055008
0.616765 0.974732 0.055012
1.000000 0.977684 0.054994
0.000000 0.351551 0.054985
0.022809 0.357813 0.055009
0.043609 0.369472 0.055002
0.061440 0.386857 0.054995
0.076290 0.409628 0.055005
0.086968 0.437707 0.055012
0.095455 0.469204 0.055016
0.099476 0.508613 0.055000
0.103024 0.552017 0.054980
0.107724 0.600269 0.055022
0.115009 0.653258 0.055008
0.126261 0.709663 0.054984
0.143415 0.764410 0.055023
0.166867 0.826567 0.054965
0.202523 0.884486 0.055016
0.268939 0.926875 0.054993
0.369476 0.956388 0.055003
0.609443 0.983149 0.054997
1.000000 0.984986 0.055035
0.000000 0.601515 0.055015
0.008444 0.602514 0.054993
0.016839 0.609487 0.055020
0.025264 0.616827 0.055030
0.033737 0.629790 0.055036
0.042076 0.647686 0.055008
0.050645 0.669391 0.055014
0.059092 0.699957 0.054948
0.068519 0.732340 0.054967
0.079381 0.763816 0.055037
0.092011 0.800322 0.055014
0.107689 0.835339 0.055009
0.126920 0.869141 0.055009
0.153698 0.904600 0.054997
0.191904 0.939433 0.055009
0.263080 0.962347 0.054992
0.357814 0.977185 0.055006
0.602487 0.991546 0.054984
1.000000 0.992490 0.054966
0.000000 1.000000 0.054833
0.007504 1.000000 0.054880
0.015000 1.000000 0.055012
0.022326 1.000000 0.055059
0.029440 1.000000 0.055030
0.036492 1.000000 0.055003
0.044027 1.000000 0.054878
0.052112 1.000000 0.054934
0.061711 1.000000 0.054973
0.072410 1.000000 0.055091
0.085885 1.000000 0.054992
0.102587 1.000000 0.054992
0.123060 1.000000 0.055034
0.149547 1.000000 0.055033
0.188178 1.000000 0.054983
0.258919 1.000000 0.054996
0.351539 1.000000 0.054984
0.601552 1.000000 0.055009
1.000000 1.000000 0.054925
0.000000 0.000000 0.109932
0.398460 0.000000 0.109977
0.648502 0.000000 0.109991
0.741134 0.000000 0.109953
0.811810 0.000000 0.110028
0.850424 0.000000 0.109961
0.876919 0.000000 0.110075
0.897366 0.000000 0.110089
0.914096 0.000000 0.110004
0.927593 0.000000 0.109986
0.938287 0.000000 0.110019
0.947843 0.000000 0.109974
0.955912 0.000000 0.109865
0.963420 0.000000 0.109965
0.970464 0.000000 0.109938
0.977564 0.000000 0.109989
0.984922 0.000000 0.109933