# vtk DataFile Version 2.0
Mesh for Fierro
ASCII 
DATASET UNSTRUCTURED_GRID

POINTS 2527 float
0.000000 0.000000 0.000000
0.108724 0.000000 0.000000
0.212729 0.000000 0.000000
0.310866 0.000000 0.000000
0.399208 0.000000 0.000000
0.476952 0.000000 0.000000
0.545483 0.000000 0.000000
0.605772 0.000000 0.000000
0.658837 0.000000 0.000000
0.705563 0.000000 0.000000
0.747698 0.000000 0.000000
0.785760 0.000000 0.000000
0.820719 0.000000 0.000000
0.854008 0.000000 0.000000
0.885502 0.000000 0.000000
0.915115 0.000000 0.000000
0.943641 0.000000 0.000000
0.972182 0.000000 0.000000
1.000000 0.000000 0.000000
0.000000 0.027818 0.000000
0.108219 0.028670 0.000000
0.211750 0.030668 0.000000
0.309333 0.033880 0.000000
0.397189 0.037682 0.000000
0.474500 0.042607 0.000000
0.543088 0.047808 0.000000
0.602887 0.054319 0.000000
0.655777 0.061279 0.000000
0.702394 0.068078 0.000000
0.744278 0.074988 0.000000
0.782503 0.081840 0.000000
0.817581 0.088432 0.000000
0.850866 0.094178 0.000000
0.882617 0.099233 0.000000
0.912792 0.103362 0.000000
0.942067 0.106238 0.000000
0.971330 0.108219 0.000000
1.000000 0.108724 0.000000
0.000000 0.056359 0.000000
0.106238 0.057933 0.000000
0.207988 0.061268 0.000000
0.303961 0.067439 0.000000
0.390201 0.074927 0.000000
0.466762 0.084786 0.000000
0.534729 0.095199 0.000000
0.593926 0.107895 0.000000
0.646073 0.121209 0.000000
0.692717 0.134404 0.000000
0.734690 0.148026 0.000000
0.773267 0.160798 0.000000
0.809078 0.173891 0.000000
0.843527 0.185041 0.000000
0.876655 0.194532 0.000000
0.907970 0.202396 0.000000
0.938732 0.207988 0.000000
0.969332 0.211750 0.000000
1.000000 0.212729 0.000000
0.000000 0.084885 0.000000
0.103362 0.087208 0.000000
0.202396 0.092030 0.000000
0.295859 0.100889 0.000000
0.380101 0.111596 0.000000
0.455042 0.125953 0.000000
0.521922 0.141691 0.000000
0.579574 0.159929 0.000000
0.630890 0.179410 0.000000
0.676741 0.198320 0.000000
0.718443 0.217863 0.000000
0.757845 0.236256 0.000000
0.794296 0.254912 0.000000
0.830348 0.270841 0.000000
0.865012 0.284515 0.000000
0.899111 0.295859 0.000000
0.932561 0.303961 0.000000
0.966120 0.309333 0.000000
1.000000 0.310866 0.000000
0.000000 0.114497 0.000000
0.099233 0.117383 0.000000
0.194532 0.123345 0.000000
0.284515 0.134988 0.000000
0.366408 0.149251 0.000000
0.438960 0.167186 0.000000
0.504136 0.187182 0.000000
0.560148 0.210263 0.000000
0.610320 0.234520 0.000000
0.655412 0.259188 0.000000
0.697469 0.282933 0.000000
0.737602 0.305982 0.000000
0.775337 0.329636 0.000000
0.813624 0.349763 0.000000
0.850749 0.366408 0.000000
0.888404 0.380101 0.000000
0.925073 0.390201 0.000000
0.962318 0.397189 0.000000
1.000000 0.399208 0.000000
0.000000 0.145992 0.000000
0.094178 0.149134 0.000000
0.185041 0.156473 0.000000
0.270841 0.169652 0.000000
0.349763 0.186376 0.000000
0.419424 0.207862 0.000000
0.482931 0.231370 0.000000
0.537128 0.258508 0.000000
0.585490 0.287272 0.000000
0.630090 0.315437 0.000000
0.671997 0.344022 0.000000
0.712327 0.370244 0.000000
0.751386 0.396641 0.000000
0.792138 0.419424 0.000000
0.832814 0.438960 0.000000
0.874047 0.455042 0.000000
0.915214 0.466762 0.000000
0.957393 0.474500 0.000000
1.000000 0.476952 0.000000
0.000000 0.179281 0.000000
0.088432 0.182419 0.000000
0.173891 0.190922 0.000000
0.254912 0.205704 0.000000
0.329636 0.224663 0.000000
0.396641 0.248614 0.000000
0.458600 0.274979 0.000000
0.510192 0.305348 0.000000
0.557000 0.337778 0.000000
0.601042 0.368624 0.000000
0.642755 0.400597 0.000000
0.684249 0.430402 0.000000
0.725021 0.458600 0.000000
0.768630 0.482931 0.000000
0.812818 0.504136 0.000000
0.858309 0.521922 0.000000
0.904801 0.534729 0.000000
0.952192 0.543088 0.000000
1.000000 0.545483 0.000000
0.000000 0.214240 0.000000
0.081840 0.217497 0.000000
0.160798 0.226733 0.000000
0.236256 0.242155 0.000000
0.305982 0.262398 0.000000
0.370244 0.287673 0.000000
0.430402 0.315751 0.000000
0.479456 0.347427 0.000000
0.524956 0.380865 0.000000
0.568671 0.414034 0.000000
0.610203 0.447106 0.000000
0.652573 0.479456 0.000000
0.694652 0.510192 0.000000
0.741492 0.537128 0.000000
0.789737 0.560148 0.000000
0.840071 0.579574 0.000000
0.892105 0.593926 0.000000
0.945681 0.602887 0.000000
1.000000 0.605772 0.000000
0.000000 0.252302 0.000000
0.074988 0.255722 0.000000
0.148026 0.265310 0.000000
0.217863 0.281557 0.000000
0.282933 0.302531 0.000000
0.344022 0.328003 0.000000
0.400597 0.357245 0.000000
0.447106 0.389797 0.000000
0.491805 0.423278 0.000000
0.534496 0.457453 0.000000
0.576722 0.491805 0.000000
0.619135 0.524956 0.000000
0.662222 0.557000 0.000000
0.712728 0.585490 0.000000
0.765480 0.610320 0.000000
0.820590 0.630890 0.000000
0.878791 0.646073 0.000000
0.938720 0.655777 0.000000
1.000000 0.658837 0.000000
0.000000 0.294437 0.000000
0.068078 0.297606 0.000000
0.134404 0.307283 0.000000
0.198320 0.323259 0.000000
0.259188 0.344588 0.000000
0.315437 0.369910 0.000000
0.368624 0.398958 0.000000
0.414034 0.431329 0.000000
0.457453 0.465504 0.000000
0.500000 0.500000 0.000000
0.542547 0.534496 0.000000
0.585966 0.568671 0.000000
0.631376 0.601042 0.000000
0.684563 0.630090 0.000000
0.740812 0.655412 0.000000
0.801680 0.676741 0.000000
0.865596 0.692717 0.000000
0.931922 0.702394 0.000000
1.000000 0.705563 0.000000
0.000000 0.341163 0.000000
0.061279 0.344223 0.000000
0.121209 0.353927 0.000000
0.179410 0.369110 0.000000
0.234520 0.389680 0.000000
0.287272 0.414510 0.000000
0.337778 0.443000 0.000000
0.380865 0.475044 0.000000
0.423278 0.508195 0.000000
0.465504 0.542547 0.000000
0.508195 0.576722 0.000000
0.552894 0.610203 0.000000
0.599403 0.642755 0.000000
0.655978 0.671997 0.000000
0.717067 0.697469 0.000000
0.782137 0.718443 0.000000
0.851974 0.734690 0.000000
0.925011 0.744277 0.000000
1.000000 0.747698 0.000000
0.000000 0.394228 0.000000
0.054319 0.397113 0.000000
0.107895 0.406074 0.000000
0.159929 0.420426 0.000000
0.210263 0.439852 0.000000
0.258508 0.462872 0.000000
0.305348 0.489808 0.000000
0.347427 0.520544 0.000000
0.389797 0.552894 0.000000
0.431329 0.585966 0.000000
0.475044 0.619135 0.000000
0.520544 0.652573 0.000000
0.569598 0.684249 0.000000
0.629756 0.712327 0.000000
0.694018 0.737602 0.000000
0.763744 0.757845 0.000000
0.839202 0.773267 0.000000
0.918160 0.782503 0.000000
1.000000 0.785760 0.000000
0.000000 0.454517 0.000000
0.047808 0.456912 0.000000
0.095199 0.465271 0.000000
0.141691 0.478078 0.000000
0.187182 0.495864 0.000000
0.231370 0.517069 0.000000
0.274979 0.541400 0.000000
0.315751 0.569598 0.000000
0.357245 0.599403 0.000000
0.398958 0.631376 0.000000
0.443000 0.662222 0.000000
0.489808 0.694652 0.000000
0.541400 0.725021 0.000000
0.603359 0.751386 0.000000
0.670364 0.775337 0.000000
0.745088 0.794296 0.000000
0.826109 0.809078 0.000000
0.911567 0.817581 0.000000
1.000000 0.820719 0.000000
0.000000 0.523048 0.000000
0.042607 0.525500 0.000000
0.084786 0.533238 0.000000
0.125953 0.544958 0.000000
0.167186 0.561040 0.000000
0.207862 0.580576 0.000000
0.248614 0.603359 0.000000
0.287673 0.629756 0.000000
0.328003 0.655978 0.000000
0.369910 0.684563 0.000000
0.414510 0.712728 0.000000
0.462872 0.741492 0.000000
0.517069 0.768630 0.000000
0.580576 0.792138 0.000000
0.650237 0.813624 0.000000
0.729159 0.830348 0.000000
0.814959 0.843527 0.000000
0.905821 0.850866 0.000000
1.000000 0.854008 0.000000
0.000000 0.600792 0.000000
0.037682 0.602811 0.000000
0.074927 0.609799 0.000000
0.111596 0.619899 0.000000
0.149251 0.633592 0.000000
0.186376 0.650237 0.000000
0.224663 0.670364 0.000000
0.262398 0.694018 0.000000
0.302531 0.717067 0.000000
0.344588 0.740812 0.000000
0.389680 0.765480 0.000000
0.439852 0.789737 0.000000
0.495864 0.812818 0.000000
0.561040 0.832814 0.000000
0.633592 0.850749 0.000000
0.715485 0.865012 0.000000
0.805468 0.876655 0.000000
0.900766 0.882617 0.000000
1.000000 0.885502 0.000000
0.000000 0.689134 0.000000
0.033880 0.690667 0.000000
0.067439 0.696039 0.000000
0.100889 0.704141 0.000000
0.134988 0.715485 0.000000
0.169652 0.729159 0.000000
0.205704 0.745088 0.000000
0.242155 0.763744 0.000000
0.281557 0.782137 0.000000
0.323259 0.801680 0.000000
0.369110 0.820590 0.000000
0.420426 0.840071 0.000000
0.478078 0.858309 0.000000
0.544958 0.874047 0.000000
0.619899 0.888404 0.000000
0.704141 0.899111 0.000000
0.797604 0.907970 0.000000
0.896637 0.912792 0.000000
1.000000 0.915115 0.000000
0.000000 0.787271 0.000000
0.030668 0.788250 0.000000
0.061268 0.792012 0.000000
0.092030 0.797604 0.000000
0.123345 0.805468 0.000000
0.156473 0.814959 0.000000
0.190922 0.826109 0.000000
0.226733 0.839202 0.000000
0.265310 0.851974 0.000000
0.307283 0.865596 0.000000
0.353927 0.878791 0.000000
0.406074 0.892105 0.000000
0.465271 0.904801 0.000000
0.533238 0.915214 0.000000
0.609799 0.925073 0.000000
0.696039 0.932561 0.000000
0.792012 0.938732 0.000000
0.893761 0.942067 0.000000
1.000000 0.943641 0.000000
0.000000 0.891275 0.000000
0.028670 0.891780 0.000000
0.057933 0.893761 0.000000
0.087208 0.896637 0.000000
0.117383 0.900766 0.000000
0.149134 0.905821 0.000000
0.182419 0.911567 0.000000
0.217497 0.918160 0.000000
0.255723 0.925011 0.000000
0.297606 0.931922 0.000000
0.344223 0.938720 0.000000
0.397113 0.945681 0.000000
0.456912 0.952192 0.000000
0.525500 0.957393 0.000000
0.602811 0.962318 0.000000
0.690667 0.966120 0.000000
0.788250 0.969332 0.000000
0.891780 0.971330 0.000000
1.000000 0.972182 0.000000
0.000000 1.000000 0.000000
0.027818 1.000000 0.000000
0.056359 1.000000 0.000000
0.084885 1.000000 0.000000
0.114498 1.000000 0.000000
0.145992 1.000000 0.000000
0.179281 1.000000 0.000000
0.214240 1.000000 0.000000
0.252302 1.000000 0.000000
0.294437 1.000000 0.000000
0.341163 1.000000 0.000000
0.394228 1.000000 0.000000
0.454517 1.000000 0.000000
0.523048 1.000000 0.000000
0.600792 1.000000 0.000000
0.689134 1.000000 0.000000
0.787271 1.000000 0.000000
0.891275 1.000000 0.000000
1.000000 1.000000 0.000000
0.000000 0.000000 0.055000
0.108724 0.000000 0.055000
0.212729 0.000000 0.055000
0.310866 0.000000 0.055000
0.399208 0.000000 0.055000
[...]
POINT_DATA 2527 
VECTORS pos float 
0.000000 0.000000 0.000000
0.108724 0.000000 0.000000
0.212729 0.000000 0.000000
0.310866 0.000000 0.000000
0.399208 0.000000 0.000000
0.476952 0.000000 0.000000
0.545483 0.000000 0.000000
0.605772 0.000000 0.000000
0.658837 0.000000 0.000000
0.705563 0.000000 0.000000
0.747698 0.000000 0.000000
0.785760 0.000000 0.000000
0.820719 0.000000 0.000000
0.854008 0.000000 0.000000
0.885502 0.000000 0.000000
0.915115 0.000000 0.000000
0.943641 0.000000 0.000000
0.972182 0.000000 0.000000
1.000000 0.000000 0.000000
0.000000 0.027818 0.000000
0.108219 0.028670 0.000000
0.211750 0.030668 0.000000
0.309333 0.033880 0.000000
0.397189 0.037682 0.000000
0.474500 0.042607 0.000000
0.543088 0.047808 0.000000
0.602887 0.054319 0.000000
0.655777 0.061279 0.000000
0.702394 0.068078 0.000000
0.744278 0.074988 0.000000
0.782503 0.081840 0.000000
0.817581 0.088432 0.000000
0.850866 0.094178 0.000000
0.882617 0.099233 0.000000
0.912792 0.103362 0.000000
0.942067 0.106238 0.000000
0.971330 0.108219 0.000000
1.000000 0.108724 0.000000
0.000000 0.056359 0.000000
0.106238 0.057933 0.000000
0.207988 0.061268 0.000000
0.303961 0.067439 0.000000
0.390201 0.074927 0.000000
0.466762 0.084786 0.000000
0.534729 0.095199 0.000000
0.593926 0.107895 0.000000
0.646073 0.121209 0.000000
0.692717 0.134404 0.000000
0.734690 0.148026 0.000000
0.773267 0.160798 0.000000
0.809078 0.173891 0.000000
0.843527 0.185041 0.000000
0.876655 0.194532 0.000000
0.907970 0.202396 0.000000
0.938732 0.207988 0.000000
0.969332 0.211750 0.000000
1.000000 0.212729 0.000000
0.000000 0.084885 0.000000
0.103362 0.087208 0.000000
0.202396 0.092030 0.000000
0.295859 0.100889 0.000000
0.380101 0.111596 0.000000
0.455042 0.125953 0.000000
0.521922 0.141691 0.000000
0.579574 0.159929 0.000000
0.630890 0.179410 0.000000
0.676741 0.198320 0.000000
0.718443 0.217863 0.000000
0.757845 0.236256 0.000000
0.794296 0.254912 0.000000
0.830348 0.270841 0.000000
0.865012 0.284515 0.000000
0.899111 0.295859 0.000000
0.932561 0.303961 0.000000
0.966120 0.309333 0.000000
1.000000 0.310866 0.000000
0.000000 0.114497 0.000000
0.099233 0.117383 0.000000
0.194532 0.123345 0.000000
0.284515 0.134988 0.000000
0.366408 0.149251 0.000000
0.438960 0.167186 0.000000
0.504136 0.187182 0.000000
0.560148 0.210263 0.000000
0.610320 0.234520 0.000000
0.655412 0.259188 0.000000
0.697469 0.282933 0.000000
0.737602 0.305982 0.000000
0.775337 0.329636 0.000000
0.813624 0.349763 0.000000
0.850749 0.366408 0.000000
0.888404 0.380101 0.000000
0.925073 0.390201 0.000000
0.962318 0.397189 0.000000
1.000000 0.399208 0.000000
0.000000 0.145992 0.000000
0.094178 0.149134 0.000000
0.185041 0.156473 0.000000
0.270841 0.169652 0.000000
0.349763 0.186376 0.000000
0.419424 0.207862 0.000000
0.482931 0.231370 0.000000
0.537128 0.258508 0.000000
0.585490 0.287272 0.000000
0.630090 0.315437 0.000000
0.671997 0.344022 0.000000
0.712327 0.370244 0.000000
0.751386 0.396641 0.000000
0.792138 0.419424 0.000000
0.832814 0.438960 0.000000
0.874047 0.455042 0.000000
0.915214 0.466762 0.000000
0.957393 0.474500 0.000000
1.000000 0.476952 0.000000
0.000000 0.179281 0.000000
0.088432 0.182419 0.000000
0.173891 0.190922 0.000000
0.254912 0.205704 0.000000
0.329636 0.224663 0.000000
0.396641 0.248614 0.000000
0.458600 0.274979 0.000000
0.510192 0.305348 0.000000
0.557000 0.337778 0.000000
0.601042 0.368624 0.000000
0.642755 0.400597 0.000000
0.684249 0.430402 0.000000
0.725021 0.458600 0.000000
0.768630 0.482931 0.000000
0.812818 0.504136 0.000000
0.858309 0.521922 0.000000
0.904801 0.534729 0.000000
0.952192 0.543088 0.000000
1.000000 0.545483 0.000000
0.000000 0.214240 0.000000
0.081840 0.217497 0.000000
0.160798 0.226733 0.000000
0.236256 0.242155 0.000000
0.305982 0.262398 0.000000
0.370244 0.287673 0.000000
0.430402 0.315751 0.000000
0.479456 0.347427 0.000000
0.524956 0.380865 0.000000
0.568671 0.414034 0.000000
0.610203 0.447106 0.000000
0.652573 0.479456 0.000000
0.694652 0.510192 0.000000
0.741492 0.537128 0.000000
0.789737 0.560148 0.000000
0.840071 0.579574 0.000000
0.892105 0.593926 0.000000
0.945681 0.602887 0.000000
1.000000 0.605772 0.000000
0.000000 0.252302 0.000000
0.074988 0.255722 0.000000
0.148026 0.265310 0.000000
0.217863 0.281557 0.000000
0.282933 0.302531 0.000000
0.344022 0.328003 0.000000
0.400597 0.357245 0.000000
0.447106 0.389797 0.000000
0.491805 0.423278 0.000000
0.534496 0.457453 0.000000
0.576722 0.491805 0.000000
0.619135 0.524956 0.000000
0.662222 0.557000 0.000000
0.712728 0.585490 0.000000
0.765480 0.610320 0.000000
0.820590 0.630890 0.000000
0.878791 0.646073 0.000000
0.938720 0.655777 0.000000
1.000000 0.658837 0.000000
0.000000 0.294437 0.000000
0.068078 0.297606 0.000000
0.134404 0.307283 0.000000
0.198320 0.323259 0.000000
0.259188 0.344588 0.000000
0.315437 0.369910 0.000000
0.368624 0.398958 0.000000
0.414034 0.431329 0.000000
0.457453 0.465504 0.000000
0.500000 0.500000 0.000000
0.542547 0.534496 0.000000
0.585966 0.568671 0.000000
0.631376 0.601042 0.000000
0.684563 0.630090 0.000000
0.740812 0.655412 0.000000
0.801680 0.676741 0.000000
0.865596 0.692717 0.000000
0.931922 0.702394 0.000000
1.000000 0.705563 0.000000
0.000000 0.341163 0.000000
0.061279 0.344223 0.000000
0.121209 0.353927 0.000000
0.179410 0.369110 0.000000
0.234520 0.389680 0.000000
0.287272 0.414510 0.000000
0.337778 0.443000 0.000000
0.380865 0.475044 0.000000
0.423278 0.508195 0.000000
0.465504 0.542547 0.000000
0.508195 0.576722 0.000000
0.552894 0.610203 0.000000
0.599403 0.642755 0.000000
0.655978 0.671997 0.000000
0.717067 0.697469 0.000000
0.782137 0.718443 0.000000
0.851974 0.734690 0.000000
0.925011 0.744277 0.000000
1.000000 0.747698 0.000000
0.000000 0.394228 0.000000
0.054319 0.397113 0.000000
0.107895 0.406074 0.000000
0.159929 0.420426 0.000000
0.210263 0.439852 0.000000
0.258508 0.462872 0.000000
0.305348 0.489808 0.000000
0.347427 0.520544 0.000000
0.389797 0.552894 0.000000
0.431329 0.585966 0.000000
0.475044 0.619135 0.000000
0.520544 0.652573 0.000000
0.569598 0.684249 0.000000
0.629756 0.712327 0.000000
0.694018 0.737602 0.000000
0.763744 0.757845 0.000000
0.839202 0.773267 0.000000
0.918160 0.782503 0.000000
1.000000 0.785760 0.000000
0.000000 0.454517 0.000000
0.047808 0.456912 0.000000
0.095199 0.465271 0.000000
0.141691 0.478078 0.000000
0.187182 0.495864 0.000000
0.231370 0.517069 0.000000
0.274979 0.541400 0.000000
0.315751 0.569598 0.000000
0.357245 0.599403 0.000000
0.398958 0.631376 0.000000
0.443000 0.662222 0.000000
0.489808 0.694652 0.000000
0.541400 0.725021 0.000000
0.603359 0.751386 0.000000
0.670364 0.775337 0.000000
0.745088 0.794296 0.000000
0.826109 0.809078 0.000000
0.911567 0.817581 0.000000
1.000000 0.820719 0.000000
0.000000 0.523048 0.000000
0.042607 0.525500 0.000000
0.084786 0.533238 0.000000
0.125953 0.544958 0.000000
0.167186 0.561040 0.000000
0.207862 0.580576 0.000000
0.248614 0.603359 0.000000
0.287673 0.629756 0.000000
0.328003 0.655978 0.000000
0.369910 0.684563 0.000000
0.414510 0.712728 0.000000
0.462872 0.741492 0.000000
0.517069 0.768630 0.000000
0.580576 0.792138 0.000000
0.650237 0.813624 0.000000
0.729159 0.830348 0.000000
0.814959 0.843527 0.000000
0.905821 0.850866 0.000000
1.000000 0.854008 0.000000
0.000000 0.600792 0.000000
0.037682 0.602811 0.000000
0.074927 0.609799 0.000000
0.111596 0.619899 0.000000
0.149251 0.633592 0.000000
0.186376 0.650237 0.000000
0.224663 0.670364 0.000000
0.262398 0.694018 0.000000
0.302531 0.717067 0.000000
0.344588 0.740812 0.000000
0.389680 0.765480 0.000000
0.439852 0.789737 0.000000
0.495864 0.812818 0.000000
0.561040 0.832814 0.000000
0.633592 0.850749 0.000000
0.715485 0.865012 0.000000
0.805468 0.876655 0.000000
0.900766 0.882617 0.000000
1.000000 0.885502 0.000000
0.000000 0.689134 0.000000
0.033880 0.690667 0.000000
0.067439 0.696039 0.000000
0.100889 0.704141 0.000000
0.134988 0.715485 0.000000
0.169652 0.729159 0.000000
0.205704 0.745088 0.000000
0.242155 0.763744 0.000000
0.281557 0.782137 0.000000
0.323259 0.801680 0.000000
0.369110 0.820590 0.000000
0.420426 0.840071 0.000000
0.478078 0.858309 0.000000
0.544958 0.874047 0.000000
0.619899 0.888404 0.000000
0.704141 0.899111 0.000000
0.797604 0.907970 0.000000
0.896637 0.912792 0.000000
1.000000 0.915115 0.000000
0.000000 0.787271 0.000000
0.030668 0.788250 0.000000
0.061268 0.792012 0.000000
0.092030 0.797604 0.000000
0.123345 0.805468 0.000000
0.156473 0.814959 0.000000
0.190922 0.826109 0.000000
0.226733 0.839202 0.000000
0.265310 0.851974 0.000000
0.307283 0.865596 0.000000
0.353927 0.878791 0.000000
0.406074 0.892105 0.000000
0.465271 0.904801 0.000000
0.533238 0.915214 0.000000
0.609799 0.925073 0.000000
0.696039 0.932561 0.000000
0.792012 0.938732 0.000000
0.893761 0.942067 0.000000
1.000000 0.943641 0.000000
0.000000 0.891275 0.000000
0.028670 0.891780 0.000000
0.057933 0.893761 0.000000
0.087208 0.896637 0.000000
0.117383 0.900766 0.000000
0.149134 0.905821 0.000000
0.182419 0.911567 0.000000
0.217497 0.918160 0.000000
0.255723 0.925011 0.000000
0.297606 0.931922 0.000000
0.344223 0.938720 0.000000
0.397113 0.945681 0.000000
0.456912 0.952192 0.000000
0.525500 0.957393 0.000000
0.602811 0.962318 0.000000
0.690667 0.966120 0.000000
0.788250 0.969332 0.000000
0.891780 0.971330 0.000000
1.000000 0.972182 0.000000
0.000000 1.000000 0.000000
0.027818 1.000000 0.000000
0.056359 1.000000 0.000000
0.084885 1.000000 0.000000
0.114498 1.000000 0.000000
0.145992 1.000000 0.000000
0.179281 1.000000 0.000000
0.214240 1.000000 0.000000
0.252302 1.000000 0.000000
0.294437 1.000000 0.000000
0.341163 1.000000 0.000000
0.394228 1.000000 0.000000
0.454517 1.000000 0.000000
0.523048 1.000000 0.000000
0.600792 1.000000 0.000000
0.689134 1.000000 0.000000
0.787271 1.000000 0.000000
0.891275 1.000000 0.000000
1.000000 1.000000 0.000000
0.000000 0.000000 0.055000
0.108724 0.000000 0.055000
0.212729 0.000000 0.055000
0.310866 0.000000 0.055000
0.399208 0.000000 0.055000
0.476952 0.000000 0.055000
0.545483 0.000000 0.055000
0.605772 0.000000 0.055000
0.658837 0.000000 0.055000
0.705563 0.000000 0.055000
0.747698 0.000000 0.055000
0.785760 0.000000 0.055000
0.820719 0.000000 0.055000
0.854008 0.000000 0.055000
0.885502 0.000000 0.055000
0.915115 0.000000 0.055000
0.943641 0.000000 0.055000
0.972182 0.000000 0.055000
1.000000 0.000000 0.055000
0.000000 0.027818 0.055000
0.108219 0.028670 0.055000
0.211750 0.030668 0.055000
0.309333 0.033880 0.055000
0.397189 0.037682 0.055000
0.474500 0.042607 0.055000
0.543088 0.047808 0.055000
0.602887 0.054319 0.055000
0.655777 0.061279 0.055000
0.702394 0.068078 0.055000
0.744278 0.074988 0.055000
0.782503 0.081840 0.055000
0.817581 0.088432 0.055000
0.850866 0.094178 0.055000
0.882617 0.099233 0.055000
0.912792 0.103362 0.055000
0.942067 0.106238 0.055000
0.971330 0.108219 0.055000
1.000000 0.108724 0.055000
0.000000 0.056359 0.055000
0.106238 0.057933 0.055000
0.207988 0.061268 0.055000
0.303961 0.067439 0.055000
0.390201 0.074927 0.055000
0.466762 0.084786 0.055000
0.534729 0.095199 0.055000
0.593926 0.107895 0.055000
0.646073 0.121209 0.055000
0.692717 0.134404 0.055000
0.734690 0.148026 0.055000
0.773267 0.160798 0.055000
0.809078 0.173891 0.055000
0.843527 0.185041 0.055000
0.876655 0.194532 0.055000
0.907970 0.202396 0.055000
0.938732 0.207988 0.055000
0.969332 0.211750 0.055000
1.000000 0.212729 0.055000
0.000000 0.084885 0.055000
0.103362 0.087208 0.055000
0.202396 0.092030 0.055000
0.295859 0.100889 0.055000
0.380101 0.111596 0.055000
0.455042 0.125953 0.055000
0.521922 0.141691 0.055000
0.579574 0.159929 0.055000
0.630890 0.179410 0.055000
0.676741 0.198320 0.055000
0.718443 0.217863 0.055000
0.757845 0.236256 0.055000
0.794296 0.254912 0.055000
0.830348 0.270841 0.055000
0.865012 0.284515 0.055000
0.899111 0.295859 0.055000
0.932561 0.303961 0.055000
0.966120 0.309333 0.055000
1.000000 0.310866 0.055000
0.000000 0.114497 0.055000
0.099233 0.117383 0.055000
0.194532 0.123345 0.055000
0.284515 0.134988 0.055000
0.366408 0.149251 0.055000
0.438960 0.167186 0.055000
0.504136 0.187182 0.055000
0.560148 0.210263 0.055000
0.610320 0.234520 0.055000
0.655412 0.259188 0.055000
0.697469 0.282933 0.055000
0.737602 0.305982 0.055000
0.775337 0.329636 0.055000
0.813624 0.349763 0.055000
0.850749 0.366408 0.055000
0.888404 0.380101 0.055000
0.925073 0.390201 0.055000
0.962318 0.397189 0.055000
1.000000 0.399208 0.055000
0.000000 0.145992 0.055000
0.094178 0.149134 0.055000
0.185041 0.156473 0.055000
0.270841 0.169652 0.055000
0.349763 0.186376 0.055000
0.419424 0.207862 0.055000
0.482931 0.231370 0.055000
0.537128 0.258508 0.055000
0.585490 0.287272 0.055000
0.630090 0.315437 0.055000
0.671997 0.344022 0.055000
0.712327 0.370244 0.055000
0.751386 0.396641 0.055000
0.792138 0.419424 0.055000
0.832814 0.438960 0.055000
0.874047 0.455042 0.055000
0.915214 0.466762 0.055000
0.957393 0.474500 0.055000
1.000000 0.476952 0.055000
0.000000 0.179281 0.055000
0.088432 0.182419 0.055000
0.173891 0.190922 0.055000
0.254912 0.205704 0.055000
0.329636 0.224663 0.055000
0.396641 0.248614 0.055000
0.458600 0.274979 0.055000
0.510192 0.305348 0.055000
0.557000 0.337778 0.055000
0.601042 0.368624 0.055000
0.642755 0.400597 0.055000
0.684249 0.430402 0.055000
0.725021 0.458600 0.055000
0.768630 0.482931 0.055000
0.812818 0.504136 0.055000
0.858309 0.521922 0.055000
0.904801 0.534729 0.055000
0.952192 0.543088 0.055000
1.000000 0.545483 0.055000
0.000000 0.214240 0.055000
0.081840 0.217497 0.055000
0.160798 0.226733 0.055000
0.236256 0.242155 0.055000
0.305982 0.262398 0.055000
0.370244 0.287673 0.055000
0.430402 0.315751 0.055000
0.479456 0.347427 0.055000
0.524956 0.380865 0.055000
0.568671 0.414034 0.055000
0.610203 0.447106 0.055000
0.652573 0.479456 0.055000
0.694652 0.510192 0.055000
0.741492 0.537128 0.055000
0.789737 0.560148 0.055000
0.840071 0.579574 0.055000
0.892105 0.593926 0.055000
0.945681 0.602887 0.055000
1.000000 0.605772 0.055000
0.000000 0.252302 0.055000
0.074988 0.255722 0.055000
0.148026 0.265310 0.055000
0.217863 0.281557 0.055000
0.282933 0.302531 0.055000
0.344022 0.328003 0.055000
0.400597 0.357245 0.055000
0.447106 0.389797 0.055000
0.491805 0.423278 0.055000
0.534496 0.457453 0.055000
0.576722 0.491805 0.055000
0.619135 0.524956 0.055000
0.662222 0.557000 0.055000
0.712728 0.585490 0.055000
0.765480 0.610320 0.055000
0.820590 0.630890 0.055000
0.878791 0.646073 0.055000
0.938720 0.655777 0.055000
1.000000 0.658837 0.055000
0.000000 0.294437 0.055000
0.068078 0.297606 0.055000
0.134404 0.307283 0.055000
0.198320 0.323259 0.055000
0.259188 0.344588 0.055000
0.315437 0.369910 0.055000
0.368624 0.398958 0.055000
0.414034 0.431329 0.055000
0.457453 0.465504 0.055000
0.500000 0.500000 0.055000
0.542547 0.534496 0.055000
0.585966 0.568671 0.055000
0.631376 0.601042 0.055000
0.684563 0.630090 0.055000
0.740812 0.655412 0.055000
0.801680 0.676741 0.055000
0.865596 0.692717 0.055000
0.931922 0.702394 0.055000
1.000000 0.705563 0.055000
0.000000 0.341163 0.055000
0.061279 0.344223 0.055000
0.121209 0.353927 0.055000
0.179410 0.369110 0.055000
0.234520 0.389680 0.055000
0.287272 0.414510 0.055000
0.337778 0.443000 0.055000
0.380865 0.475044 0.055000
0.423278 0.508195 0.055000
0.465504 0.542547 0.055000
0.508195 0.576722 0.055000
0.552894 0.610203 0.055000
0.599403 0.642755 0.055000
0.655978 0.671997 0.055000
0.717067 0.697469 0.055000
0.782137 0.718443 0.055000
0.851974 0.734690 0.055000
0.925011 0.744277 0.055000
1.000000 0.747698 0.055000
0.000000 0.394228 0.055000
0.054319 0.397113 0.055000
0.107895 0.406074 0.055000
0.159929 0.420426 0.055000
0.210263 0.439852 0.055000
0.258508 0.462872 0.055000
0.305348 0.489808 0.055000
0.347427 0.520544 0.055000
0.389797 0.552894 0.055000
0.431329 0.585966 0.055000
0.475044 0.619135 0.055000
0.520544 0.652573 0.055000
0.569598 0.684249 0.055000
0.629756 0.712327 0.055000
0.694018 0.737602 0.055000
0.763744 0.757845 0.055000
0.839202 0.773267 0.055000
0.918160 0.782503 0.055000
1.000000 0.785760 0.055000
0.000000 0.454517 0.055000
0.047808 0.456912 0.055000
0.095199 0.465271 0.055000
0.141691 0.478078 0.055000
0.187182 0.495864 0.055000
0.231370 0.517069 0.055000
0.274979 0.541400 0.055000
0.315751 0.569598 0.055000
0.357245 0.599403 0.055000
0.398958 0.631376 0.055000
0.443000 0.662222 0.055000
0.489808 0.694652 0.055000
0.541400 0.725021 0.055000
0.603359 0.751386 0.055000
0.670364 0.775337 0.055000
0.745088 0.794296 0.055000
0.826109 0.809078 0.055000
0.911567 0.817581 0.055000
1.000000 0.820719 0.055000
0.000000 0.523048 0.055000
0.042607 0.525500 0.055000
0.084786 0.533238 0.055000
0.125953 0.544958 0.055000
0.167186 0.561040 0.055000
0.207862 0.580576 0.055000
0.248614 0.603359 0.055000
0.287673 0.629756 0.055000
0.328003 0.655978 0.055000
0.369910 0.684563 0.055000
0.414510 0.712728 0.055000
0.462872 0.741492 0.055000
0.517069 0.768630 0.055000
0.580576 0.792138 0.055000
0.650237 0.813624 0.055000
0.729159 0.830348 0.055000
0.814959 0.843527 0.055000
0.905821 0.850866 0.055000
1.000000 0.854008 0.055000
0.000000 0.600792 0.055000
0.037682 0.602811 0.055000
0.074927 0.609799 0.055000
0.111596 0.619899 0.055000
0.149251 0.633592 0.055000
0.186376 0.650237 0.055000
0.224663 0.670364 0.055000
0.262398 0.694018 0.055000
0.302531 0.717067 0.055000
0.344588 0.740812 0.055000
0.389680 0.765480 0.055000
0.439852 0.789737 0.055000
0.495864 0.812818 0.055000
0.561040 0.832814 0.055000
0.633592 0.850749 0.055000
0.715485 0.865012 0.055000
0.805468 0.876655 0.055000
0.900766 0.882617 0.055000
1.000000 0.885502 0.055000
0.000000 0.689134 0.055000
0.033880 0.690667 0.055000
0.067439 0.696039 0.055000
0.100889 0.704141 0.055000
0.134988 0.715485 0.055000
0.169652 0.729159 0.055000
0.205704 0.745088 0.055000
0.242155 0.763744 0.055000
0.281557 0.782137 0.055000
0.323259 0.801680 0.055000
0.369110 0.820590 0.055000
0.420426 0.840071 0.055000
0.478078 0.858309 0.055000
0.544958 0.874047 0.055000
0.619899 0.888404 0.055000
0.704141 0.899111 0.055000
0.797604 0.907970 0.055000
0.896637 0.912792 0.055000
1.000000 0.915115 0.055000
0.000000 0.787271 0.055000
0.030668 0.788250 0.055000
0.061268 0.792012 0.055000
0.092030 0.797604 0.055000
0.123345 0.805468 0.055000
0.156473 0.814959 0.055000
0.190922 0.826109 0.055000
0.226733 0.839202 0.055000
0.265310 0.851974 0.055000
0.307283 0.865596 0.055000
0.353927 0.878791 0.055000
0.406074 0.892105 0.055000
0.465271 0.904801 0.055000
0.533238 0.915214 0.055000
0.609799 0.925073 0.055000
0.696039 0.932561 0.055000
0.792012 0.938732 0.055000
0.893761 0.942067 0.055000
1.000000 0.943641 0.055000
0.000000 0.891275 0.055000
0.028670 0.891780 0.055000
0.057933 0.893761 0.055000
0.087208 0.896637 0.055000
0.117383 0.900766 0.055000
0.149134 0.905821 0.055000
0.182419 0.911567 0.055000
0.217497 0.918160 0.055000
0.255723 0.925011 0.055000
0.297606 0.931922 0.055000
0.344223 0.938720 0.055000
0.397113 0.945681 0.055000
0.456912 0.952192 0.055000
0.525500 0.957393 0.055000
0.602811 0.962318 0.055000
0.690667 0.966120 0.055000
0.788250 0.969332 0.055000
0.891780 0.971330 0.055000
1.000000 0.972182 0.055000
0.000000 1.000000 0.055000
0.027818 1.000000 0.055000
0.056359 1.000000 0.055000
0.084885 1.000000 0.055000
0.114498 1.000000 0.055000
0.145992 1.000000 0.055000
0.179281 1.000000 0.055000
0.214240 1.000000 0.055000
0.252302 1.000000 0.055000
0.294437 1.000000 0.055000
0.341163 1.000000 0.055000
0.394228 1.000000 0.055000
0.454517 1.000000 0.055000
0.523048 1.000000 0.055000
0.600792 1.000000 0.055000
0.689134 1.000000 0.055000
0.787271 1.000000 0.055000
0.891275 1.000000 0.055000
1.000000 1.000000 0.055000
0.000000 0.000000 0.110000
0.108724 0.000000 0.110000
0.212729 0.000000 0.110000
0.310866 0.000000 0.110000
0.399208 0.000000 0.110000
0.476952 0.000000 0.110000
0.545483 0.000000 0.110000
0.605772 0.000000 0.110000
0.658837 0.000000 0.110000
0.705563 0.000000 0.110000
0.747698 0.000000 0.110000
0.785760 0.000000 0.110000
0.820719 0.000000 0.110000
0.854008 0.000000 0.110000
0.885502 0.000000 0.110000
0.915115 0.000000 0.110000
0.943641 0.000000 0.110000