# vtk DataFile Version 2.0
Mesh for Fierro
ASCII 
DATASET UNSTRUCTURED_GRID

POINTS 2527 float
0.000000 0.000000 0.000000
0.521576 0.000000 0.000000
0.875430 0.000000 0.000000
0.907321 0.000000 0.000000
0.926056 0.000000 0.000000
0.939395 0.000000 0.000000
0.949785 0.000000 0.000000
0.957975 0.000000 0.000000
0.964803 0.000000 0.000000
0.970466 0.000000 0.000000
0.975035 0.000000 0.000000
0.978793 0.000000 0.000000
0.981841 0.000000 0.000000
0.984852 0.000000 0.000000
0.987436 0.000000 0.000000
0.990526 0.000000 0.000000
0.993957 0.000000 0.000000
0.997971 0.000000 0.000000
1.000000 0.000000 0.000000
0.000000 0.002016 0.000000
0.544292 0.006927 0.000000
0.864842 0.034792 0.000000
0.869265 0.114881 0.000000
0.904018 0.126340 0.000000
0.916057 0.211195 0.000000
0.925683 0.265952 0.000000
0.932118 0.322128 0.000000
0.936804 0.381789 0.000000
0.940871 0.437694 0.000000
0.945335 0.485544 0.000000
0.949900 0.531234 0.000000
0.954865 0.570592 0.000000
0.961774 0.594588 0.000000
0.969045 0.610396 0.000000
0.977172 0.604944 0.000000
0.985277 0.587590 0.000000
0.993052 0.544593 0.000000
1.000000 0.520304 0.000000
0.000000 0.005987 0.000000
0.587110 0.014717 0.000000
0.847633 0.061163 0.000000
0.831262 0.165617 0.000000
0.888942 0.209356 0.000000
0.898026 0.353816 0.000000
0.900621 0.456635 0.000000
0.902643 0.529519 0.000000
0.900348 0.598994 0.000000
0.894065 0.649012 0.000000
0.885488 0.683947 0.000000
0.880056 0.707621 0.000000
0.882484 0.727589 0.000000
0.894727 0.749364 0.000000
0.912418 0.776592 0.000000
0.927354 0.813128 0.000000
0.938746 0.847453 0.000000
0.964903 0.865171 0.000000
1.000000 0.876187 0.000000
0.000000 0.009399 0.000000
0.605554 0.022885 0.000000
0.813166 0.072708 0.000000
0.824392 0.198091 0.000000
0.877881 0.300989 0.000000
0.869407 0.431701 0.000000
0.851394 0.527537 0.000000
0.846024 0.583076 0.000000
0.821636 0.639379 0.000000
0.792901 0.684514 0.000000
0.763696 0.727077 0.000000
0.746139 0.765607 0.000000
0.741230 0.795624 0.000000
0.741681 0.817530 0.000000
0.765656 0.824721 0.000000
0.802205 0.824350 0.000000
0.834933 0.831605 0.000000
0.885493 0.869705 0.000000
1.000000 0.908310 0.000000
0.000000 0.012443 0.000000
0.610600 0.030979 0.000000
0.776468 0.087655 0.000000
0.824830 0.234497 0.000000
0.847954 0.359436 0.000000
0.837731 0.465964 0.000000
0.794733 0.567443 0.000000
0.776617 0.626948 0.000000
0.729584 0.685431 0.000000
0.688053 0.721532 0.000000
0.659817 0.745819 0.000000
0.637119 0.762973 0.000000
0.625716 0.782250 0.000000
0.623062 0.809328 0.000000
0.640619 0.848136 0.000000
0.699393 0.877690 0.000000
0.790520 0.888780 0.000000
0.873538 0.905385 0.000000
1.000000 0.930620 0.000000
0.000000 0.015028 0.000000
0.594286 0.038244 0.000000
0.749250 0.105349 0.000000
0.817465 0.258027 0.000000
0.809572 0.376669 0.000000
0.808552 0.481793 0.000000
0.747962 0.566424 0.000000
0.722413 0.626896 0.000000
0.674524 0.661919 0.000000
0.622026 0.683663 0.000000
0.575557 0.708582 0.000000
0.534350 0.738962 0.000000
0.516762 0.774395 0.000000
0.518197 0.808589 0.000000
0.534103 0.837690 0.000000
0.568112 0.869463 0.000000
0.646046 0.897861 0.000000
0.787840 0.915810 0.000000
1.000000 0.940075 0.000000
0.000000 0.018016 0.000000
0.570350 0.045163 0.000000
0.727506 0.117547 0.000000
0.795669 0.258756 0.000000
0.782246 0.374387 0.000000
0.774507 0.483162 0.000000
0.711955 0.552910 0.000000
0.666351 0.610882 0.000000
0.597314 0.632913 0.000000
0.546078 0.657321 0.000000
0.502312 0.673790 0.000000
0.475084 0.695131 0.000000
0.446977 0.712032 0.000000
0.433577 0.748015 0.000000
0.432459 0.794958 0.000000
0.472538 0.851566 0.000000
0.543323 0.900671 0.000000
0.734662 0.925098 0.000000
1.000000 0.948320 0.000000
0.000000 0.021051 0.000000
0.530891 0.050103 0.000000
0.707551 0.119976 0.000000
0.765671 0.253864 0.000000
0.762907 0.362913 0.000000
0.738983 0.465619 0.000000
0.695065 0.524846 0.000000
0.641404 0.574599 0.000000
0.582971 0.589998 0.000000
0.524185 0.606953 0.000000
0.471556 0.620504 0.000000
0.425468 0.641408 0.000000
0.389148 0.666324 0.000000
0.373083 0.722408 0.000000
0.373058 0.776578 0.000000
0.417025 0.846245 0.000000
0.470266 0.902782 0.000000
0.677900 0.931846 0.000000
1.000000 0.956985 0.000000
0.000000 0.024816 0.000000
0.485268 0.054624 0.000000
0.683918 0.114534 0.000000
0.727143 0.236226 0.000000
0.745799 0.340172 0.000000
0.708568 0.424390 0.000000
0.673860 0.497624 0.000000
0.620556 0.528421 0.000000
0.567016 0.541506 0.000000
0.510325 0.555395 0.000000
0.458464 0.567011 0.000000
0.409938 0.582988 0.000000
0.367082 0.597349 0.000000
0.338072 0.674550 0.000000
0.314454 0.729581 0.000000
0.360700 0.821615 0.000000
0.400429 0.900346 0.000000
0.617681 0.936714 0.000000
1.000000 0.964194 0.000000
0.000000 0.029347 0.000000
0.437691 0.059072 0.000000
0.649000 0.105984 0.000000
0.684626 0.207159 0.000000
0.721529 0.311932 0.000000
0.683654 0.378017 0.000000
0.657284 0.453942 0.000000
0.606887 0.475843 0.000000
0.555336 0.489690 0.000000
0.499964 0.499973 0.000000
0.444576 0.510312 0.000000
0.393066 0.524165 0.000000
0.342701 0.546111 0.000000
0.316389 0.621954 0.000000
0.278487 0.688060 0.000000
0.315326 0.792725 0.000000
0.350712 0.893987 0.000000
0.561852 0.940842 0.000000
1.000000 0.970065 0.000000
0.000000 0.034995 0.000000
0.382282 0.063161 0.000000
0.599321 0.099781 0.000000
0.639431 0.178443 0.000000
0.685438 0.270415 0.000000
0.661954 0.325374 0.000000
0.632956 0.402739 0.000000
0.590046 0.417038 0.000000
0.541490 0.432954 0.000000
0.489682 0.444687 0.000000
0.433008 0.458457 0.000000
0.379498 0.471554 0.000000
0.326170 0.502389 0.000000
0.291400 0.575652 0.000000
0.254192 0.659811 0.000000
0.272944 0.763976 0.000000
0.315917 0.885574 0.000000
0.514380 0.945343 0.000000
1.000000 0.974758 0.000000
0.000000 0.041774 0.000000
0.322219 0.067731 0.000000
0.529729 0.097290 0.000000
0.583098 0.153923 0.000000
0.626924 0.223414 0.000000
0.626815 0.277643 0.000000
0.610878 0.333684 0.000000
0.574611 0.358594 0.000000
0.528451 0.379526 0.000000
0.475807 0.393068 0.000000
0.417043 0.409931 0.000000
0.358567 0.425507 0.000000
0.304841 0.475173 0.000000
0.261085 0.534313 0.000000
0.237004 0.637312 0.000000
0.234406 0.746269 0.000000
0.292319 0.880192 0.000000
0.469196 0.949945 0.000000
1.000000 0.978597 0.000000
0.000000 0.049971 0.000000
0.265978 0.073991 0.000000
0.456701 0.099117 0.000000
0.527563 0.148331 0.000000
0.567411 0.205079 0.000000
0.566526 0.251979 0.000000
0.552841 0.288018 0.000000
0.524810 0.304979 0.000000
0.497644 0.326259 0.000000
0.453843 0.342669 0.000000
0.402717 0.367042 0.000000
0.333717 0.389170 0.000000
0.287953 0.447061 0.000000
0.225584 0.516571 0.000000
0.217783 0.625800 0.000000
0.204327 0.741249 0.000000
0.272376 0.882654 0.000000
0.429612 0.954906 0.000000
1.000000 0.981692 0.000000
0.000000 0.060635 0.000000
0.211521 0.083825 0.000000
0.353962 0.101861 0.000000
0.432063 0.130676 0.000000
0.465981 0.162249 0.000000
0.481725 0.191435 0.000000
0.483339 0.225500 0.000000
0.465706 0.261045 0.000000
0.424391 0.291370 0.000000
0.378034 0.316321 0.000000
0.325474 0.338069 0.000000
0.277629 0.373137 0.000000
0.251952 0.433491 0.000000
0.191468 0.518110 0.000000
0.190612 0.623355 0.000000
0.182510 0.741833 0.000000
0.250666 0.894997 0.000000
0.405434 0.961809 0.000000
1.000000 0.984731 0.000000
0.000000 0.074479 0.000000
0.126375 0.096033 0.000000
0.209630 0.111215 0.000000
0.300834 0.122148 0.000000
0.359508 0.152009 0.000000
0.376622 0.190575 0.000000
0.374245 0.217695 0.000000
0.362708 0.237053 0.000000
0.340238 0.254208 0.000000
0.311944 0.278448 0.000000
0.270487 0.314463 0.000000
0.223424 0.373063 0.000000
0.204951 0.432474 0.000000
0.162350 0.534082 0.000000
0.152072 0.640471 0.000000
0.175231 0.765542 0.000000
0.223339 0.912566 0.000000
0.389351 0.969033 0.000000
1.000000 0.987344 0.000000
0.000000 0.092910 0.000000
0.114802 0.130847 0.000000
0.165388 0.168763 0.000000
0.197645 0.175921 0.000000
0.234535 0.175360 0.000000
0.258176 0.182522 0.000000
0.258731 0.204413 0.000000
0.253737 0.234395 0.000000
0.236131 0.272868 0.000000
0.207383 0.315323 0.000000
0.178379 0.360730 0.000000
0.153786 0.416987 0.000000
0.148283 0.472543 0.000000
0.130571 0.568003 0.000000
0.122268 0.698983 0.000000
0.175859 0.802254 0.000000
0.186843 0.927522 0.000000
0.395009 0.977139 0.000000
1.000000 0.990445 0.000000
0.000000 0.124968 0.000000
0.034783 0.135292 0.000000
0.061116 0.152394 0.000000
0.072601 0.186886 0.000000
0.087469 0.223220 0.000000
0.105062 0.250649 0.000000
0.117351 0.272305 0.000000
0.119838 0.292366 0.000000
0.114519 0.316001 0.000000
0.106085 0.350719 0.000000
0.099631 0.400460 0.000000
0.097122 0.470330 0.000000
0.099149 0.543162 0.000000
0.101860 0.646021 0.000000
0.111382 0.790372 0.000000
0.168585 0.834587 0.000000
0.152499 0.938946 0.000000
0.411997 0.985226 0.000000
1.000000 0.993927 0.000000
0.000000 0.478430 0.000000
0.007004 0.454663 0.000000
0.014793 0.411763 0.000000
0.022918 0.395073 0.000000
0.030982 0.389319 0.000000
0.038220 0.405244 0.000000
0.045077 0.429400 0.000000
0.050002 0.468867 0.000000
0.054588 0.514004 0.000000
0.059039 0.561635 0.000000
0.063032 0.617633 0.000000
0.067644 0.677724 0.000000
0.074035 0.734437 0.000000
0.083883 0.788372 0.000000
0.095794 0.873592 0.000000
0.130617 0.885247 0.000000
0.135140 0.965173 0.000000
0.454595 0.993010 0.000000
1.000000 0.997933 0.000000
0.000000 1.000000 0.000000
0.002025 1.000000 0.000000
0.005998 1.000000 0.000000
0.009380 1.000000 0.000000
0.012422 1.000000 0.000000
0.014999 1.000000 0.000000
0.018033 1.000000 0.000000
0.021090 1.000000 0.000000
0.024865 1.000000 0.000000
0.029405 1.000000 0.000000
0.035073 1.000000 0.000000
0.041926 1.000000 0.000000
0.050221 1.000000 0.000000
0.060427 1.000000 0.000000
0.073336 1.000000 0.000000
0.092695 1.000000 0.000000
0.124838 1.000000 0.000000
0.478995 1.000000 0.000000
1.000000 1.000000 0.000000
0.000000 0.000000 0.055103
0.521656 0.000000 0.055174
0.872799 0.000000 0.055130
0.905622 0.000000 0.055320
0.925804 0.000000 0.054989
[...]
POINT_DATA 2527 
VECTORS pos float 
0.000000 0.000000 0.000000
0.521576 0.000000 0.000000
0.875430 0.000000 0.000000
0.907321 0.000000 0.000000
0.926056 0.000000 0.000000
0.939395 0.000000 0.000000
0.949785 0.000000 0.000000
0.957975 0.000000 0.000000
0.964803 0.000000 0.000000
0.970466 0.000000 0.000000
0.975035 0.000000 0.000000
0.978793 0.000000 0.000000
0.981841 0.000000 0.000000
0.984852 0.000000 0.000000
0.987436 0.000000 0.000000
0.990526 0.000000 0.000000
0.993957 0.000000 0.000000
0.997971 0.000000 0.000000
1.000000 0.000000 0.000000
0.000000 0.002016 0.000000
0.544292 0.006927 0.000000
0.864842 0.034792 0.000000
0.869265 0.114881 0.000000
0.904018 0.126340 0.000000
0.916057 0.211195 0.000000
0.925683 0.265952 0.000000
0.932118 0.322128 0.000000
0.936804 0.381789 0.000000
0.940871 0.437694 0.000000
0.945335 0.485544 0.000000
0.949900 0.531234 0.000000
0.954865 0.570592 0.000000
0.961774 0.594588 0.000000
0.969045 0.610396 0.000000
0.977172 0.604944 0.000000
0.985277 0.587590 0.000000
0.993052 0.544593 0.000000
1.000000 0.520304 0.000000
0.000000 0.005987 0.000000
0.587110 0.014717 0.000000
0.847633 0.061163 0.000000
0.831262 0.165617 0.000000
0.888942 0.209356 0.000000
0.898026 0.353816 0.000000
0.900621 0.456635 0.000000
0.902643 0.529519 0.000000
0.900348 0.598994 0.000000
0.894065 0.649012 0.000000
0.885488 0.683947 0.000000
0.880056 0.707621 0.000000
0.882484 0.727589 0.000000
0.894727 0.749364 0.000000
0.912418 0.776592 0.000000
0.927354 0.813128 0.000000
0.938746 0.847453 0.000000
0.964903 0.865171 0.000000
1.000000 0.876187 0.000000
0.000000 0.009399 0.000000
0.605554 0.022885 0.000000
0.813166 0.072708 0.000000
0.824392 0.198091 0.000000
0.877881 0.300989 0.000000
0.869407 0.431701 0.000000
0.851394 0.527537 0.000000
0.846024 0.583076 0.000000
0.821636 0.639379 0.000000
0.792901 0.684514 0.000000
0.763696 0.727077 0.000000
0.746139 0.765607 0.000000
0.741230 0.795624 0.000000
0.741681 0.817530 0.000000
0.765656 0.824721 0.000000
0.802205 0.824350 0.000000
0.834933 0.831605 0.000000
0.885493 0.869705 0.000000
1.000000 0.908310 0.000000
0.000000 0.012443 0.000000
0.610600 0.030979 0.000000
0.776468 0.087655 0.000000
0.824830 0.234497 0.000000
0.847954 0.359436 0.000000
0.837731 0.465964 0.000000
0.794733 0.567443 0.000000
0.776617 0.626948 0.000000
0.729584 0.685431 0.000000
0.688053 0.721532 0.000000
0.659817 0.745819 0.000000
0.637119 0.762973 0.000000
0.625716 0.782250 0.000000
0.623062 0.809328 0.000000
0.640619 0.848136 0.000000
0.699393 0.877690 0.000000
0.790520 0.888780 0.000000
0.873538 0.905385 0.000000
1.000000 0.930620 0.000000
0.000000 0.015028 0.000000
0.594286 0.038244 0.000000
0.749250 0.105349 0.000000
0.817465 0.258027 0.000000
0.809572 0.376669 0.000000
0.808552 0.481793 0.000000
0.747962 0.566424 0.000000
0.722413 0.626896 0.000000
0.674524 0.661919 0.000000
0.622026 0.683663 0.000000
0.575557 0.708582 0.000000
0.534350 0.738962 0.000000
0.516762 0.774395 0.000000
0.518197 0.808589 0.000000
0.534103 0.837690 0.000000
0.568112 0.869463 0.000000
0.646046 0.897861 0.000000
0.787840 0.915810 0.000000
1.000000 0.940075 0.000000
0.000000 0.018016 0.000000
0.570350 0.045163 0.000000
0.727506 0.117547 0.000000
0.795669 0.258756 0.000000
0.782246 0.374387 0.000000
0.774507 0.483162 0.000000
0.711955 0.552910 0.000000
0.666351 0.610882 0.000000
0.597314 0.632913 0.000000
0.546078 0.657321 0.000000
0.502312 0.673790 0.000000
0.475084 0.695131 0.000000
0.446977 0.712032 0.000000
0.433577 0.748015 0.000000
0.432459 0.794958 0.000000
0.472538 0.851566 0.000000
0.543323 0.900671 0.000000
0.734662 0.925098 0.000000
1.000000 0.948320 0.000000
0.000000 0.021051 0.000000
0.530891 0.050103 0.000000
0.707551 0.119976 0.000000
0.765671 0.253864 0.000000
0.762907 0.362913 0.000000
0.738983 0.465619 0.000000
0.695065 0.524846 0.000000
0.641404 0.574599 0.000000
0.582971 0.589998 0.000000
0.524185 0.606953 0.000000
0.471556 0.620504 0.000000
0.425468 0.641408 0.000000
0.389148 0.666324 0.000000
0.373083 0.722408 0.000000
0.373058 0.776578 0.000000
0.417025 0.846245 0.000000
0.470266 0.902782 0.000000
0.677900 0.931846 0.000000
1.000000 0.956985 0.000000
0.000000 0.024816 0.000000
0.485268 0.054624 0.000000
0.683918 0.114534 0.000000
0.727143 0.236226 0.000000
0.745799 0.340172 0.000000
0.708568 0.424390 0.000000
0.673860 0.497624 0.000000
0.620556 0.528421 0.000000
0.567016 0.541506 0.000000
0.510325 0.555395 0.000000
0.458464 0.567011 0.000000
0.409938 0.582988 0.000000
0.367082 0.597349 0.000000
0.338072 0.674550 0.000000
0.314454 0.729581 0.000000
0.360700 0.821615 0.000000
0.400429 0.900346 0.000000
0.617681 0.936714 0.000000
1.000000 0.964194 0.000000
0.000000 0.029347 0.000000
0.437691 0.059072 0.000000
0.649000 0.105984 0.000000
0.684626 0.207159 0.000000
0.721529 0.311932 0.000000
0.683654 0.378017 0.000000
0.657284 0.453942 0.000000
0.606887 0.475843 0.000000
0.555336 0.489690 0.000000
0.499964 0.499973 0.000000
0.444576 0.510312 0.000000
0.393066 0.524165 0.000000
0.342701 0.546111 0.000000
0.316389 0.621954 0.000000
0.278487 0.688060 0.000000
0.315326 0.792725 0.000000
0.350712 0.893987 0.000000
0.561852 0.940842 0.000000
1.000000 0.970065 0.000000
0.000000 0.034995 0.000000
0.382282 0.063161 0.000000
0.599321 0.099781 0.000000
0.639431 0.178443 0.000000
0.685438 0.270415 0.000000
0.661954 0.325374 0.000000
0.632956 0.402739 0.000000
0.590046 0.417038 0.000000
0.541490 0.432954 0.000000
0.489682 0.444687 0.000000
0.433008 0.458457 0.000000
0.379498 0.471554 0.000000
0.326170 0.502389 0.000000
0.291400 0.575652 0.000000
0.254192 0.659811 0.000000
0.272944 0.763976 0.000000
0.315917 0.885574 0.000000
0.514380 0.945343 0.000000
1.000000 0.974758 0.000000
0.000000 0.041774 0.000000
0.322219 0.067731 0.000000
0.529729 0.097290 0.000000
0.583098 0.153923 0.000000
0.626924 0.223414 0.000000
0.626815 0.277643 0.000000
0.610878 0.333684 0.000000
0.574611 0.358594 0.000000
0.528451 0.379526 0.000000
0.475807 0.393068 0.000000
0.417043 0.409931 0.000000
0.358567 0.425507 0.000000
0.304841 0.475173 0.000000
0.261085 0.534313 0.000000
0.237004 0.637312 0.000000
0.234406 0.746269 0.000000
0.292319 0.880192 0.000000
0.469196 0.949945 0.000000
1.000000 0.978597 0.000000
0.000000 0.049971 0.000000
0.265978 0.073991 0.000000
0.456701 0.099117 0.000000
0.527563 0.148331 0.000000
0.567411 0.205079 0.000000
0.566526 0.251979 0.000000
0.552841 0.288018 0.000000
0.524810 0.304979 0.000000
0.497644 0.326259 0.000000
0.453843 0.342669 0.000000
0.402717 0.367042 0.000000
0.333717 0.389170 0.000000
0.287953 0.447061 0.000000
0.225584 0.516571 0.000000
0.217783 0.625800 0.000000
0.204327 0.741249 0.000000
0.272376 0.882654 0.000000
0.429612 0.954906 0.000000
1.000000 0.981692 0.000000
0.000000 0.060635 0.000000
0.211521 0.083825 0.000000
0.353962 0.101861 0.000000
0.432063 0.130676 0.000000
0.465981 0.162249 0.000000
0.481725 0.191435 0.000000
0.483339 0.225500 0.000000
0.465706 0.261045 0.000000
0.424391 0.291370 0.000000
0.378034 0.316321 0.000000
0.325474 0.338069 0.000000
0.277629 0.373137 0.000000
0.251952 0.433491 0.000000
0.191468 0.518110 0.000000
0.190612 0.623355 0.000000
0.182510 0.741833 0.000000
0.250666 0.894997 0.000000
0.405434 0.961809 0.000000
1.000000 0.984731 0.000000
0.000000 0.074479 0.000000
0.126375 0.096033 0.000000
0.209630 0.111215 0.000000
0.300834 0.122148 0.000000
0.359508 0.152009 0.000000
0.376622 0.190575 0.000000
0.374245 0.217695 0.000000
0.362708 0.237053 0.000000
0.340238 0.254208 0.000000
0.311944 0.278448 0.000000
0.270487 0.314463 0.000000
0.223424 0.373063 0.000000
0.204951 0.432474 0.000000
0.162350 0.534082 0.000000
0.152072 0.640471 0.000000
0.175231 0.765542 0.000000
0.223339 0.912566 0.000000
0.389351 0.969033 0.000000
1.000000 0.987344 0.000000
0.000000 0.092910 0.000000
0.114802 0.130847 0.000000
0.165388 0.168763 0.000000
0.197645 0.175921 0.000000
0.234535 0.175360 0.000000
0.258176 0.182522 0.000000
0.258731 0.204413 0.000000
0.253737 0.234395 0.000000
0.236131 0.272868 0.000000
0.207383 0.315323 0.000000
0.178379 0.360730 0.000000
0.153786 0.416987 0.000000
0.148283 0.472543 0.000000
0.130571 0.568003 0.000000
0.122268 0.698983 0.000000
0.175859 0.802254 0.000000
0.186843 0.927522 0.000000
0.395009 0.977139 0.000000
1.000000 0.990445 0.000000
0.000000 0.124968 0.000000
0.034783 0.135292 0.000000
0.061116 0.152394 0.000000
0.072601 0.186886 0.000000
0.087469 0.223220 0.000000
0.105062 0.250649 0.000000
0.117351 0.272305 0.000000
0.119838 0.292366 0.000000
0.114519 0.316001 0.000000
0.106085 0.350719 0.000000
0.099631 0.400460 0.000000
0.097122 0.470330 0.000000
0.099149 0.543162 0.000000
0.101860 0.646021 0.000000
0.111382 0.790372 0.000000
0.168585 0.834587 0.000000
0.152499 0.938946 0.000000
0.411997 0.985226 0.000000
1.000000 0.993927 0.000000
0.000000 0.478430 0.000000
0.007004 0.454663 0.000000
0.014793 0.411763 0.000000
0.022918 0.395073 0.000000
0.030982 0.389319 0.000000
0.038220 0.405244 0.000000
0.045077 0.429400 0.000000
0.050002 0.468867 0.000000
0.054588 0.514004 0.000000
0.059039 0.561635 0.000000
0.063032 0.617633 0.000000
0.067644 0.677724 0.000000
0.074035 0.734437 0.000000
0.083883 0.788372 0.000000
0.095794 0.873592 0.000000
0.130617 0.885247 0.000000
0.135140 0.965173 0.000000
0.454595 0.993010 0.000000
1.000000 0.997933 0.000000
0.000000 1.000000 0.000000
0.002025 1.000000 0.000000
0.005998 1.000000 0.000000
0.009380 1.000000 0.000000
0.012422 1.000000 0.000000
0.014999 1.000000 0.000000
0.018033 1.000000 0.000000
0.021090 1.000000 0.000000
0.024865 1.000000 0.000000
0.029405 1.000000 0.000000
0.035073 1.000000 0.000000
0.041926 1.000000 0.000000
0.050221 1.000000 0.000000
0.060427 1.000000 0.000000
0.073336 1.000000 0.000000
0.092695 1.000000 0.000000
0.124838 1.000000 0.000000
0.478995 1.000000 0.000000
1.000000 1.000000 0.000000
0.000000 0.000000 0.055103
0.521656 0.000000 0.055174
0.872799 0.000000 0.055130
0.905622 0.000000 0.055320
0.925804 0.000000 0.054989
0.940019 0.000000 0.053900
0.950877 0.000000 0.054842
0.958891 0.000000 0.055149
0.965501 0.000000 0.055252
0.971052 0.000000 0.055317
0.975562 0.000000 0.055146
0.979266 0.000000 0.055008
0.982227 0.000000 0.054931
0.985154 0.000000 0.054881
0.987688 0.000000 0.054945
0.990770 0.000000 0.054907
0.994175 0.000000 0.054939
0.998108 0.000000 0.055127
1.000000 0.000000 0.055486
0.000000 0.001922 0.055194
0.545323 0.006993 0.055141
0.863865 0.034766 0.055089
0.868888 0.115412 0.054913
0.904277 0.125819 0.055217
0.916411 0.211500 0.054607
0.926209 0.265819 0.055112
0.932416 0.322625 0.055185
0.936964 0.382348 0.055038
0.940938 0.438310 0.054974
0.945354 0.486001 0.055000
0.949909 0.531056 0.054949
0.954774 0.570839 0.054967
0.961644 0.595065 0.054988
0.968903 0.610934 0.055039
0.977045 0.604596 0.054984
0.985175 0.587116 0.055124
0.993033 0.545460 0.055130
1.000000 0.522508 0.054930
0.000000 0.005880 0.055064
0.587626 0.014829 0.055045
0.847400 0.060866 0.055063
0.831519 0.165717 0.054966
0.889095 0.209644 0.055007
0.898201 0.353912 0.054956
0.900825 0.456547 0.054968
0.902636 0.529786 0.054945
0.900250 0.599403 0.054895
0.893898 0.649058 0.054944
0.885462 0.683875 0.054965
0.880063 0.707526 0.055015
0.882453 0.727546 0.055067
0.894675 0.749352 0.054989
0.912201 0.776763 0.055181
0.927521 0.813217 0.055051
0.939329 0.847370 0.055234
0.965407 0.863594 0.054852
1.000000 0.872033 0.055664
0.000000 0.009292 0.054984
0.604995 0.022979 0.055001
0.813138 0.072612 0.054958
0.824319 0.198007 0.054974
0.877914 0.300653 0.055024
0.869384 0.431942 0.055068
0.851665 0.527473 0.054975
0.846078 0.583052 0.054979
0.821562 0.639342 0.055007
0.792680 0.684693 0.055055
0.763899 0.727142 0.055034
0.746253 0.765626 0.055008
0.741359 0.795664 0.054973
0.741853 0.817521 0.054973
0.765266 0.824906 0.054864
0.801831 0.824300 0.054862
0.834200 0.831408 0.054899
0.884502 0.868764 0.054756
1.000000 0.905191 0.053752
0.000000 0.012370 0.054993
0.610967 0.031095 0.054962
0.776683 0.087741 0.055044
0.824867 0.234576 0.054948
0.848014 0.359493 0.054969
0.837738 0.465930 0.055005
0.794885 0.567390 0.054982
0.776552 0.626912 0.054991
0.729542 0.685556 0.054994
0.688038 0.721492 0.055032
0.659790 0.745761 0.054983
0.637293 0.762953 0.055021
0.625658 0.782244 0.055123
0.623351 0.809464 0.054971
0.640444 0.848014 0.055005
0.699482 0.878008 0.055093
0.790416 0.889141 0.055115
0.874319 0.903668 0.054727
1.000000 0.923548 0.054713
0.000000 0.014933 0.054937
0.594894 0.038338 0.054934
0.749295 0.105306 0.055097
0.817519 0.258203 0.054978
0.809397 0.376736 0.055011
0.808556 0.481726 0.055023
0.747962 0.566483 0.054990
0.722399 0.626964 0.055001
0.674526 0.661925 0.055026
0.621920 0.683645 0.054974
0.575612 0.708672 0.055008
0.534256 0.738932 0.054998
0.516740 0.774492 0.055020
0.518281 0.808512 0.054927
0.534056 0.837743 0.055011
0.568042 0.869323 0.054987
0.646185 0.898357 0.055068
0.788666 0.916568 0.055229
1.000000 0.939714 0.057584
0.000000 0.017876 0.054945
0.570617 0.045199 0.054921
0.727507 0.117487 0.055042
0.795649 0.258674 0.054980
0.782243 0.374260 0.054981
0.774453 0.483268 0.054975
0.712055 0.552914 0.054987
0.666356 0.610839 0.055000
0.597350 0.632874 0.054981
0.546146 0.657356 0.054991
0.502349 0.673767 0.055000
0.475133 0.695041 0.054992
0.447077 0.712034 0.055038
0.433480 0.748040 0.055003
0.432630 0.794834 0.054987
0.472555 0.851698 0.054989
0.543449 0.900804 0.054949
0.733943 0.926574 0.054916
1.000000 0.951693 0.054799
0.000000 0.020870 0.054978
0.530865 0.050073 0.054947
0.707530 0.119884 0.055048
0.765607 0.253762 0.055013
0.762948 0.362716 0.054989
0.738945 0.465697 0.054987
0.695064 0.524879 0.055022
0.641427 0.574531 0.054994
0.582976 0.590025 0.054995
0.524182 0.606950 0.055012
0.471602 0.620461 0.055012
0.425475 0.641407 0.055009
0.389194 0.666336 0.054993
0.373061 0.722403 0.054989
0.373064 0.776578 0.054979
0.416972 0.846097 0.054962
0.470224 0.902601 0.054985
0.677354 0.932600 0.054972
1.000000 0.959394 0.054633
0.000000 0.024578 0.055031
0.485710 0.054630 0.055010
0.683891 0.114485 0.055026
0.727140 0.236120 0.055039
0.745760 0.340146 0.055048
0.708657 0.424372 0.055047
0.673798 0.497635 0.055003
0.620479 0.528409 0.054974
0.567025 0.541535 0.055002
0.510325 0.555351 0.054999
0.458474 0.567029 0.054995
0.409980 0.582980 0.054991
0.367103 0.597393 0.055015
0.338068 0.674536 0.055011
0.314507 0.729563 0.055016
0.360616 0.821594 0.054973
0.400590 0.900186 0.054979
0.617541 0.937025 0.055065
1.000000 0.965810 0.054717
0.000000 0.029111 0.055145
0.438200 0.059090 0.054993
0.649059 0.106046 0.055028
0.684693 0.207252 0.055009
0.721481 0.311972 0.055009
0.683633 0.378105 0.054992
0.657328 0.453882 0.055022
0.606934 0.475842 0.055003
0.555363 0.489678 0.055009
0.500000 0.500015 0.055026
0.444635 0.510315 0.055008
0.393050 0.524167 0.055010
0.342705 0.546151 0.055005
0.316322 0.621962 0.054979
0.278509 0.688078 0.055022
0.315312 0.792752 0.054989
0.350948 0.893880 0.055070
0.561922 0.940977 0.055031
1.000000 0.971302 0.054954
0.000000 0.034712 0.055085
0.382591 0.063139 0.055023
0.599442 0.099781 0.055029
0.639377 0.178461 0.054990
0.685536 0.270427 0.055008
0.661954 0.325443 0.054964
0.632883 0.402658 0.055001
0.590035 0.417020 0.054992
0.541515 0.432978 0.054981
0.489680 0.444660 0.055016
0.432978 0.458469 0.054988
0.379494 0.471559 0.054998
0.326236 0.502370 0.055010
0.291377 0.575561 0.054987
0.254230 0.659788 0.054987
0.272880 0.763930 0.055007
0.316118 0.885431 0.055010
0.514297 0.945370 0.055007
1.000000 0.975751 0.054973
0.000000 0.041378 0.054997
0.322594 0.067718 0.055160
0.529773 0.097367 0.055045
0.583067 0.153927 0.055009
0.626900 0.223444 0.054970
0.626958 0.277597 0.055014
0.610847 0.333623 0.054995
0.574582 0.358595 0.055012
0.528418 0.379503 0.054973
0.475829 0.393047 0.055002
0.417037 0.409979 0.054985
0.358573 0.425428 0.054988
0.304964 0.475143 0.055005
0.261024 0.534296 0.055010
0.237070 0.637244 0.055002
0.234366 0.746282 0.054997
0.292457 0.879955 0.055043
0.469028 0.949883 0.054989
1.000000 0.979426 0.055027
0.000000 0.049405 0.054833
0.265546 0.074001 0.055145
0.456384 0.099244 0.055128
0.527447 0.148319 0.054986
0.567459 0.205144 0.054981
0.566436 0.252058 0.055001
0.552837 0.287989 0.054984
0.524859 0.305001 0.055037
0.497618 0.326238 0.055010
0.453827 0.342699 0.055030
0.402613 0.367127 0.055009
0.333598 0.389168 0.054961
0.287957 0.447108 0.055080
0.225532 0.516734 0.054970
0.217750 0.625767 0.055046
0.204298 0.741321 0.054993
0.272447 0.882332 0.055002
0.429533 0.954754 0.055021
1.000000 0.982380 0.055014
0.000000 0.059962 0.053991
0.211972 0.083730 0.054639
0.353963 0.101937 0.054798
0.431960 0.130701 0.054928
0.465918 0.162264 0.054961
0.481773 0.191439 0.054979
0.483226 0.225496 0.054947
0.465702 0.261020 0.054983
0.424467 0.291363 0.054974
0.378073 0.316320 0.055003
0.325490 0.338040 0.054968
0.277591 0.373049 0.054989
0.252025 0.433553 0.055019
0.191471 0.518237 0.054937
0.190632 0.623230 0.054999
0.182425 0.741796 0.055002
0.250643 0.894520 0.054995
0.405248 0.961617 0.055012
1.000000 0.985272 0.055006
0.000000 0.073564 0.055215
0.126029 0.095519 0.055181
0.209471 0.110973 0.055062
0.300504 0.122158 0.054908
0.359445 0.151998 0.055005
0.376748 0.190637 0.055035
0.374248 0.217782 0.055031
0.362750 0.237066 0.055024
0.340173 0.254217 0.055043
0.311968 0.278489 0.055043
0.270460 0.314481 0.054977
0.223453 0.373071 0.055011
0.205057 0.432540 0.054968
0.162291 0.534077 0.054998
0.151970 0.640561 0.054992
0.175098 0.765362 0.055061
0.223245 0.912113 0.055064
0.389238 0.968878 0.055060
1.000000 0.987762 0.054914
0.000000 0.093773 0.056073
0.115202 0.130843 0.054920
0.165649 0.168465 0.054926
0.197951 0.175713 0.055097
0.234527 0.175102 0.054982
0.258159 0.182442 0.055021
0.258664 0.204323 0.054997
0.253721 0.234380 0.055017
0.236110 0.272894 0.055014
0.207226 0.315338 0.054986
0.178438 0.360622 0.054998
0.153912 0.416951 0.055008
0.148320 0.472584 0.054996
0.130724 0.568073 0.054864
0.122015 0.699393 0.054956
0.175739 0.802052 0.055058
0.186710 0.927398 0.055101
0.395394 0.977032 0.054961
1.000000 0.990774 0.054985
0.000000 0.126473 0.054583
0.034807 0.135771 0.054991
0.060950 0.152409 0.055081
0.072601 0.186649 0.055091
0.087832 0.223254 0.055081
0.105427 0.250631 0.055033
0.117603 0.272468 0.054998
0.120000 0.292451 0.055027
0.114573 0.316058 0.054994
0.106109 0.350884 0.055039
0.099802 0.400582 0.054949
0.097396 0.470212 0.054995
0.099259 0.543519 0.055090
0.101818 0.646030 0.054692
0.110916 0.790249 0.055075
0.168597 0.834436 0.054855
0.152364 0.939105 0.055109
0.412538 0.985177 0.054980
1.000000 0.994137 0.055032
0.000000 0.478517 0.055114
0.006971 0.454877 0.054981
0.014811 0.412830 0.054993
0.022947 0.395150 0.055021
0.031092 0.389228 0.055049
0.038358 0.405192 0.055043
0.045230 0.429472 0.055028
0.050135 0.468971 0.054984
0.054674 0.514317 0.054994
0.059120 0.561793 0.055122
0.063126 0.617471 0.055119
0.067699 0.677382 0.055155
0.073917 0.734376 0.055182
0.083621 0.788523 0.054649
0.095683 0.873885 0.055067
0.130970 0.884720 0.054931
0.135757 0.965211 0.054864
0.454727 0.993022 0.055023
1.000000 0.998053 0.054917
0.000000 1.000000 0.054710
0.001934 1.000000 0.054958
0.005872 1.000000 0.055087
0.009278 1.000000 0.055097
0.012336 1.000000 0.055104
0.014866 1.000000 0.055092
0.017800 1.000000 0.054974
0.020791 1.000000 0.055004
0.024507 1.000000 0.054993
0.029049 1.000000 0.054947
0.034642 1.000000 0.054759
0.041269 1.000000 0.054689
0.049307 1.000000 0.054715
0.060091 1.000000 0.055052
0.074160 1.000000 0.055047
0.093799 1.000000 0.055938
0.126450 1.000000 0.054664
0.478439 1.000000 0.055022
1.000000 1.000000 0.054757
0.000000 0.000000 0.110187
0.520902 0.000000 0.110037
0.875284 0.000000 0.110662
0.907656 0.000000 0.108727
0.927295 0.000000 0.109819
0.939705 0.000000 0.108944
0.949612 0.000000 0.110134
0.957888 0.000000 0.110359
0.964754 0.000000 0.110249
0.970497 0.000000 0.110117
0.975164 0.000000 0.110237
0.978936 0.000000 0.110143
0.981968 0.000000 0.110105
0.984931 0.000000 0.110160
0.987510 0.000000 0.110112
0.990629 0.000000 0.110244
0.994023 0.000000 0.110329