# vtk DataFile Version 2.0
Mesh for Fierro
ASCII 
DATASET UNSTRUCTURED_GRID

POINTS 2527 float
0.000000 0.000000 0.000000
0.478078 0.000000 0.000000
0.757778 0.000000 0.000000
0.811904 0.000000 0.000000
0.865303 0.000000 0.000000
0.892719 0.000000 0.000000
0.911146 0.000000 0.000000
0.925777 0.000000 0.000000
0.937714 0.000000 0.000000
0.947140 0.000000 0.000000
0.955001 0.000000 0.000000
0.961719 0.000000 0.000000
0.967222 0.000000 0.000000
0.972380 0.000000 0.000000
0.977346 0.000000 0.000000
0.982626 0.000000 0.000000
0.988340 0.000000 0.000000
0.994181 0.000000 0.000000
1.000000 0.000000 0.000000
0.000000 0.005829 0.000000
0.478594 0.007347 0.000000
0.746911 0.029238 0.000000
0.804495 0.055347 0.000000
0.859715 0.073502 0.000000
0.885252 0.134625 0.000000
0.903424 0.178219 0.000000
0.916013 0.222714 0.000000
0.926288 0.267883 0.000000
0.934485 0.313167 0.000000
0.941962 0.352284 0.000000
0.948856 0.391306 0.000000
0.955203 0.426724 0.000000
0.962171 0.450762 0.000000
0.969290 0.469130 0.000000
0.977042 0.478233 0.000000
0.984883 0.481045 0.000000
0.992656 0.478536 0.000000
1.000000 0.477699 0.000000
0.000000 0.011683 0.000000
0.480553 0.015094 0.000000
0.727180 0.052358 0.000000
0.795331 0.100601 0.000000
0.851090 0.147083 0.000000
0.870928 0.237987 0.000000
0.884761 0.314541 0.000000
0.894079 0.380879 0.000000
0.898124 0.446997 0.000000
0.899507 0.503077 0.000000
0.898384 0.551045 0.000000
0.896617 0.591025 0.000000
0.896611 0.625855 0.000000
0.902651 0.654698 0.000000
0.913630 0.679633 0.000000
0.928397 0.704843 0.000000
0.947705 0.727028 0.000000
0.970833 0.746987 0.000000
1.000000 0.757977 0.000000
0.000000 0.017396 0.000000
0.478394 0.022959 0.000000
0.704838 0.071635 0.000000
0.784195 0.135286 0.000000
0.830924 0.208163 0.000000
0.846048 0.302620 0.000000
0.847934 0.394175 0.000000
0.851584 0.457460 0.000000
0.840775 0.527609 0.000000
0.829739 0.583038 0.000000
0.816027 0.635351 0.000000
0.809820 0.679271 0.000000
0.807910 0.718187 0.000000
0.818140 0.747972 0.000000
0.836196 0.770258 0.000000
0.864700 0.784191 0.000000
0.899453 0.795334 0.000000
0.944591 0.804412 0.000000
1.000000 0.811925 0.000000
0.000000 0.022677 0.000000
0.469255 0.030703 0.000000
0.679616 0.086459 0.000000
0.770298 0.163782 0.000000
0.803084 0.255472 0.000000
0.818360 0.350611 0.000000
0.803131 0.448874 0.000000
0.800973 0.515552 0.000000
0.774259 0.584138 0.000000
0.752871 0.633959 0.000000
0.734294 0.675401 0.000000
0.722925 0.710211 0.000000
0.712591 0.741367 0.000000
0.723556 0.772188 0.000000
0.744482 0.803149 0.000000
0.791919 0.830899 0.000000
0.852882 0.851048 0.000000
0.926565 0.859832 0.000000
1.000000 0.865448 0.000000
0.000000 0.027630 0.000000
0.450626 0.037807 0.000000
0.654603 0.097321 0.000000
0.747925 0.181805 0.000000
0.772208 0.276378 0.000000
0.786103 0.372667 0.000000
0.760805 0.462917 0.000000
0.751079 0.531030 0.000000
0.714057 0.585854 0.000000
0.682821 0.630892 0.000000
0.652892 0.671765 0.000000
0.632414 0.711237 0.000000
0.617774 0.749482 0.000000
0.627337 0.786087 0.000000
0.649436 0.818342 0.000000
0.697313 0.846062 0.000000
0.761979 0.870941 0.000000
0.865167 0.885149 0.000000
1.000000 0.892556 0.000000
0.000000 0.032790 0.000000
0.426758 0.044800 0.000000
0.625791 0.103426 0.000000
0.718242 0.192123 0.000000
0.741344 0.287458 0.000000
0.749524 0.382167 0.000000
0.719962 0.466122 0.000000
0.696322 0.533656 0.000000
0.646783 0.578861 0.000000
0.612941 0.620930 0.000000
0.576182 0.653897 0.000000
0.557191 0.689866 0.000000
0.533814 0.719999 0.000000
0.537037 0.760901 0.000000
0.551148 0.803230 0.000000
0.605935 0.848015 0.000000
0.685317 0.884798 0.000000
0.821948 0.903325 0.000000
1.000000 0.910996 0.000000
0.000000 0.038305 0.000000
0.391155 0.051146 0.000000
0.590922 0.103352 0.000000
0.679329 0.190199 0.000000
0.710179 0.277090 0.000000
0.711224 0.367568 0.000000
0.689877 0.442819 0.000000
0.659665 0.505235 0.000000
0.612714 0.544573 0.000000
0.569357 0.584882 0.000000
0.526956 0.619552 0.000000
0.494769 0.659646 0.000000
0.466403 0.696269 0.000000
0.468948 0.751064 0.000000
0.484411 0.800968 0.000000
0.542653 0.851666 0.000000
0.619096 0.894135 0.000000
0.777196 0.915997 0.000000
1.000000 0.925629 0.000000
0.000000 0.045023 0.000000
0.352187 0.058059 0.000000
0.550994 0.101595 0.000000
0.635378 0.183943 0.000000
0.675377 0.265658 0.000000
0.671740 0.347092 0.000000
0.653923 0.423750 0.000000
0.619579 0.473035 0.000000
0.576604 0.508353 0.000000
0.533505 0.544323 0.000000
0.491656 0.576640 0.000000
0.455375 0.612718 0.000000
0.421051 0.646757 0.000000
0.414205 0.714123 0.000000
0.415809 0.774283 0.000000
0.472339 0.840718 0.000000
0.552656 0.898095 0.000000
0.731993 0.926292 0.000000
1.000000 0.937653 0.000000
0.000000 0.052929 0.000000
0.313313 0.065548 0.000000
0.503055 0.100478 0.000000
0.583094 0.170270 0.000000
0.633982 0.247183 0.000000
0.630889 0.317196 0.000000
0.620951 0.387105 0.000000
0.584841 0.430691 0.000000
0.544295 0.466483 0.000000
0.499992 0.500031 0.000000
0.455646 0.533518 0.000000
0.415143 0.569327 0.000000
0.379088 0.612957 0.000000
0.369128 0.682815 0.000000
0.365996 0.752824 0.000000
0.416863 0.829645 0.000000
0.496818 0.899527 0.000000
0.686460 0.934549 0.000000
1.000000 0.947062 0.000000
0.000000 0.062329 0.000000
0.268135 0.073733 0.000000
0.447260 0.101944 0.000000
0.527638 0.159257 0.000000
0.584133 0.225658 0.000000
0.585833 0.285897 0.000000
0.578943 0.353251 0.000000
0.544615 0.387267 0.000000
0.508310 0.423385 0.000000
0.466512 0.455683 0.000000
0.423373 0.491664 0.000000
0.380402 0.526955 0.000000
0.346065 0.576210 0.000000
0.328271 0.652926 0.000000
0.324574 0.734370 0.000000
0.364753 0.816130 0.000000
0.448873 0.898435 0.000000
0.647593 0.942052 0.000000
1.000000 0.954938 0.000000
0.000000 0.074215 0.000000
0.222774 0.083983 0.000000
0.380993 0.105909 0.000000
0.457472 0.148427 0.000000
0.515538 0.199063 0.000000
0.531010 0.248942 0.000000
0.533605 0.303689 0.000000
0.505259 0.340343 0.000000
0.473030 0.380407 0.000000
0.430676 0.415159 0.000000
0.387291 0.455401 0.000000
0.340338 0.494795 0.000000
0.310122 0.557236 0.000000
0.288795 0.632421 0.000000
0.289787 0.722952 0.000000
0.320730 0.809866 0.000000
0.409018 0.896760 0.000000
0.608939 0.948931 0.000000
1.000000 0.961662 0.000000
0.000000 0.088830 0.000000
0.178100 0.096564 0.000000
0.314415 0.115110 0.000000
0.394177 0.151918 0.000000
0.448873 0.196868 0.000000
0.462913 0.239200 0.000000
0.466021 0.280056 0.000000
0.442810 0.310183 0.000000
0.423801 0.346120 0.000000
0.387049 0.379057 0.000000
0.353251 0.421053 0.000000
0.303722 0.466408 0.000000
0.280048 0.533914 0.000000
0.250468 0.617592 0.000000
0.258729 0.712681 0.000000
0.281750 0.807983 0.000000
0.374081 0.896649 0.000000
0.573296 0.955251 0.000000
1.000000 0.967195 0.000000
0.000000 0.107255 0.000000
0.134798 0.114749 0.000000
0.238075 0.129094 0.000000
0.302782 0.153917 0.000000
0.350581 0.181564 0.000000
0.372662 0.213860 0.000000
0.382321 0.250450 0.000000
0.367592 0.288787 0.000000
0.347105 0.328250 0.000000
0.317164 0.369099 0.000000
0.285928 0.414148 0.000000
0.248931 0.468976 0.000000
0.239170 0.537036 0.000000
0.213875 0.627320 0.000000
0.227936 0.723622 0.000000
0.251951 0.818167 0.000000
0.345390 0.902761 0.000000
0.549152 0.962227 0.000000
1.000000 0.972395 0.000000
0.000000 0.134639 0.000000
0.073468 0.140223 0.000000
0.147052 0.148860 0.000000
0.208080 0.169126 0.000000
0.255491 0.197025 0.000000
0.276395 0.227922 0.000000
0.287315 0.258734 0.000000
0.277006 0.289798 0.000000
0.265636 0.324588 0.000000
0.247169 0.365962 0.000000
0.225738 0.415807 0.000000
0.199060 0.484436 0.000000
0.196862 0.551154 0.000000
0.181592 0.649427 0.000000
0.197006 0.744504 0.000000
0.229701 0.836297 0.000000
0.320399 0.913646 0.000000
0.530289 0.969299 0.000000
1.000000 0.977379 0.000000
0.000000 0.188100 0.000000
0.055426 0.195523 0.000000
0.100599 0.204783 0.000000
0.135282 0.215816 0.000000
0.163723 0.229696 0.000000
0.181820 0.251996 0.000000
0.192010 0.281757 0.000000
0.190118 0.320740 0.000000
0.183911 0.364696 0.000000
0.170417 0.416836 0.000000
0.159291 0.472377 0.000000
0.148357 0.542638 0.000000
0.151954 0.605845 0.000000
0.153944 0.697233 0.000000
0.169121 0.791872 0.000000
0.215790 0.864742 0.000000
0.295356 0.928502 0.000000
0.521292 0.977033 0.000000
1.000000 0.982656 0.000000
0.000000 0.242542 0.000000
0.029270 0.252976 0.000000
0.052335 0.272794 0.000000
0.071476 0.295378 0.000000
0.086384 0.320368 0.000000
0.097247 0.345376 0.000000
0.103383 0.374080 0.000000
0.103269 0.409006 0.000000
0.101654 0.448813 0.000000
0.100513 0.496820 0.000000
0.101902 0.552671 0.000000
0.105843 0.619120 0.000000
0.115150 0.685317 0.000000
0.129056 0.761910 0.000000
0.148888 0.852903 0.000000
0.204764 0.899387 0.000000
0.272828 0.947718 0.000000
0.518720 0.984861 0.000000
1.000000 0.988296 0.000000
0.000000 0.522196 0.000000
0.007382 0.520945 0.000000
0.015152 0.518469 0.000000
0.022943 0.521459 0.000000
0.030699 0.530095 0.000000
0.037771 0.549006 0.000000
0.044761 0.573028 0.000000
0.051085 0.608755 0.000000
0.057976 0.647332 0.000000
0.065461 0.686359 0.000000
0.073707 0.731938 0.000000
0.083955 0.777221 0.000000
0.096576 0.821759 0.000000
0.114796 0.865128 0.000000
0.140227 0.926568 0.000000
0.195531 0.944533 0.000000
0.252920 0.970731 0.000000
0.521068 0.992622 0.000000
1.000000 0.994126 0.000000
0.000000 1.000000 0.000000
0.005891 1.000000 0.000000
0.011714 1.000000 0.000000
0.017339 1.000000 0.000000
0.022611 1.000000 0.000000
0.027600 1.000000 0.000000
0.032806 1.000000 0.000000
0.038320 1.000000 0.000000
0.045012 1.000000 0.000000
0.052899 1.000000 0.000000
0.062319 1.000000 0.000000
0.074297 1.000000 0.000000
0.088907 1.000000 0.000000
0.107398 1.000000 0.000000
0.134594 1.000000 0.000000
0.188178 1.000000 0.000000
0.242411 1.000000 0.000000
0.522181 1.000000 0.000000
1.000000 1.000000 0.000000
0.000000 0.000000 0.055223
0.478150 0.000000 0.055060
0.757274 0.000000 0.055057
0.811710 0.000000 0.055003
0.865303 0.000000 0.054988
[...]
POINT_DATA 2527 
VECTORS pos float 
0.000000 0.000000 0.000000
0.478078 0.000000 0.000000
0.757778 0.000000 0.000000
0.811904 0.000000 0.000000
0.865303 0.000000 0.000000
0.892719 0.000000 0.000000
0.911146 0.000000 0.000000
0.925777 0.000000 0.000000
0.937714 0.000000 0.000000
0.947140 0.000000 0.000000
0.955001 0.000000 0.000000
0.961719 0.000000 0.000000
0.967222 0.000000 0.000000
0.972380 0.000000 0.000000
0.977346 0.000000 0.000000
0.982626 0.000000 0.000000
0.988340 0.000000 0.000000
0.994181 0.000000 0.000000
1.000000 0.000000 0.000000
0.000000 0.005829 0.000000
0.478594 0.007347 0.000000
0.746911 0.029238 0.000000
0.804495 0.055347 0.000000
0.859715 0.073502 0.000000
0.885252 0.134625 0.000000
0.903424 0.178219 0.000000
0.916013 0.222714 0.000000
0.926288 0.267883 0.000000
0.934485 0.313167 0.000000
0.941962 0.352284 0.000000
0.948856 0.391306 0.000000
0.955203 0.426724 0.000000
0.962171 0.450762 0.000000
0.969290 0.469130 0.000000
0.977042 0.478233 0.000000
0.984883 0.481045 0.000000
0.992656 0.478536 0.000000
1.000000 0.477699 0.000000
0.000000 0.011683 0.000000
0.480553 0.015094 0.000000
0.727180 0.052358 0.000000
0.795331 0.100601 0.000000
0.851090 0.147083 0.000000
0.870928 0.237987 0.000000
0.884761 0.314541 0.000000
0.894079 0.380879 0.000000
0.898124 0.446997 0.000000
0.899507 0.503077 0.000000
0.898384 0.551045 0.000000
0.896617 0.591025 0.000000
0.896611 0.625855 0.000000
0.902651 0.654698 0.000000
0.913630 0.679633 0.000000
0.928397 0.704843 0.000000
0.947705 0.727028 0.000000
0.970833 0.746987 0.000000
1.000000 0.757977 0.000000
0.000000 0.017396 0.000000
0.478394 0.022959 0.000000
0.704838 0.071635 0.000000
0.784195 0.135286 0.000000
0.830924 0.208163 0.000000
0.846048 0.302620 0.000000
0.847934 0.394175 0.000000
0.851584 0.457460 0.000000
0.840775 0.527609 0.000000
0.829739 0.583038 0.000000
0.816027 0.635351 0.000000
0.809820 0.679271 0.000000
0.807910 0.718187 0.000000
0.818140 0.747972 0.000000
0.836196 0.770258 0.000000
0.864700 0.784191 0.000000
0.899453 0.795334 0.000000
0.944591 0.804412 0.000000
1.000000 0.811925 0.000000
0.000000 0.022677 0.000000
0.469255 0.030703 0.000000
0.679616 0.086459 0.000000
0.770298 0.163782 0.000000
0.803084 0.255472 0.000000
0.818360 0.350611 0.000000
0.803131 0.448874 0.000000
0.800973 0.515552 0.000000
0.774259 0.584138 0.000000
0.752871 0.633959 0.000000
0.734294 0.675401 0.000000
0.722925 0.710211 0.000000
0.712591 0.741367 0.000000
0.723556 0.772188 0.000000
0.744482 0.803149 0.000000
0.791919 0.830899 0.000000
0.852882 0.851048 0.000000
0.926565 0.859832 0.000000
1.000000 0.865448 0.000000
0.000000 0.027630 0.000000
0.450626 0.037807 0.000000
0.654603 0.097321 0.000000
0.747925 0.181805 0.000000
0.772208 0.276378 0.000000
0.786103 0.372667 0.000000
0.760805 0.462917 0.000000
0.751079 0.531030 0.000000
0.714057 0.585854 0.000000
0.682821 0.630892 0.000000
0.652892 0.671765 0.000000
0.632414 0.711237 0.000000
0.617774 0.749482 0.000000
0.627337 0.786087 0.000000
0.649436 0.818342 0.000000
0.697313 0.846062 0.000000
0.761979 0.870941 0.000000
0.865167 0.885149 0.000000
1.000000 0.892556 0.000000
0.000000 0.032790 0.000000
0.426758 0.044800 0.000000
0.625791 0.103426 0.000000
0.718242 0.192123 0.000000
0.741344 0.287458 0.000000
0.749524 0.382167 0.000000
0.719962 0.466122 0.000000
0.696322 0.533656 0.000000
0.646783 0.578861 0.000000
0.612941 0.620930 0.000000
0.576182 0.653897 0.000000
0.557191 0.689866 0.000000
0.533814 0.719999 0.000000
0.537037 0.760901 0.000000
0.551148 0.803230 0.000000
0.605935 0.848015 0.000000
0.685317 0.884798 0.000000
0.821948 0.903325 0.000000
1.000000 0.910996 0.000000
0.000000 0.038305 0.000000
0.391155 0.051146 0.000000
0.590922 0.103352 0.000000
0.679329 0.190199 0.000000
0.710179 0.277090 0.000000
0.711224 0.367568 0.000000
0.689877 0.442819 0.000000
0.659665 0.505235 0.000000
0.612714 0.544573 0.000000
0.569357 0.584882 0.000000
0.526956 0.619552 0.000000
0.494769 0.659646 0.000000
0.466403 0.696269 0.000000
0.468948 0.751064 0.000000
0.484411 0.800968 0.000000
0.542653 0.851666 0.000000
0.619096 0.894135 0.000000
0.777196 0.915997 0.000000
1.000000 0.925629 0.000000
0.000000 0.045023 0.000000
0.352187 0.058059 0.000000
0.550994 0.101595 0.000000
0.635378 0.183943 0.000000
0.675377 0.265658 0.000000
0.671740 0.347092 0.000000
0.653923 0.423750 0.000000
0.619579 0.473035 0.000000
0.576604 0.508353 0.000000
0.533505 0.544323 0.000000
0.491656 0.576640 0.000000
0.455375 0.612718 0.000000
0.421051 0.646757 0.000000
0.414205 0.714123 0.000000
0.415809 0.774283 0.000000
0.472339 0.840718 0.000000
0.552656 0.898095 0.000000
0.731993 0.926292 0.000000
1.000000 0.937653 0.000000
0.000000 0.052929 0.000000
0.313313 0.065548 0.000000
0.503055 0.100478 0.000000
0.583094 0.170270 0.000000
0.633982 0.247183 0.000000
0.630889 0.317196 0.000000
0.620951 0.387105 0.000000
0.584841 0.430691 0.000000
0.544295 0.466483 0.000000
0.499992 0.500031 0.000000
0.455646 0.533518 0.000000
0.415143 0.569327 0.000000
0.379088 0.612957 0.000000
0.369128 0.682815 0.000000
0.365996 0.752824 0.000000
0.416863 0.829645 0.000000
0.496818 0.899527 0.000000
0.686460 0.934549 0.000000
1.000000 0.947062 0.000000
0.000000 0.062329 0.000000
0.268135 0.073733 0.000000
0.447260 0.101944 0.000000
0.527638 0.159257 0.000000
0.584133 0.225658 0.000000
0.585833 0.285897 0.000000
0.578943 0.353251 0.000000
0.544615 0.387267 0.000000
0.508310 0.423385 0.000000
0.466512 0.455683 0.000000
0.423373 0.491664 0.000000
0.380402 0.526955 0.000000
0.346065 0.576210 0.000000
0.328271 0.652926 0.000000
0.324574 0.734370 0.000000
0.364753 0.816130 0.000000
0.448873 0.898435 0.000000
0.647593 0.942052 0.000000
1.000000 0.954938 0.000000
0.000000 0.074215 0.000000
0.222774 0.083983 0.000000
0.380993 0.105909 0.000000
0.457472 0.148427 0.000000
0.515538 0.199063 0.000000
0.531010 0.248942 0.000000
0.533605 0.303689 0.000000
0.505259 0.340343 0.000000
0.473030 0.380407 0.000000
0.430676 0.415159 0.000000
0.387291 0.455401 0.000000
0.340338 0.494795 0.000000
0.310122 0.557236 0.000000
0.288795 0.632421 0.000000
0.289787 0.722952 0.000000
0.320730 0.809866 0.000000
0.409018 0.896760 0.000000
0.608939 0.948931 0.000000
1.000000 0.961662 0.000000
0.000000 0.088830 0.000000
0.178100 0.096564 0.000000
0.314415 0.115110 0.000000
0.394177 0.151918 0.000000
0.448873 0.196868 0.000000
0.462913 0.239200 0.000000
0.466021 0.280056 0.000000
0.442810 0.310183 0.000000
0.423801 0.346120 0.000000
0.387049 0.379057 0.000000
0.353251 0.421053 0.000000
0.303722 0.466408 0.000000
0.280048 0.533914 0.000000
0.250468 0.617592 0.000000
0.258729 0.712681 0.000000
0.281750 0.807983 0.000000
0.374081 0.896649 0.000000
0.573296 0.955251 0.000000
1.000000 0.967195 0.000000
0.000000 0.107255 0.000000
0.134798 0.114749 0.000000
0.238075 0.129094 0.000000
0.302782 0.153917 0.000000
0.350581 0.181564 0.000000
0.372662 0.213860 0.000000
0.382321 0.250450 0.000000
0.367592 0.288787 0.000000
0.347105 0.328250 0.000000
0.317164 0.369099 0.000000
0.285928 0.414148 0.000000
0.248931 0.468976 0.000000
0.239170 0.537036 0.000000
0.213875 0.627320 0.000000
0.227936 0.723622 0.000000
0.251951 0.818167 0.000000
0.345390 0.902761 0.000000
0.549152 0.962227 0.000000
1.000000 0.972395 0.000000
0.000000 0.134639 0.000000
0.073468 0.140223 0.000000
0.147052 0.148860 0.000000
0.208080 0.169126 0.000000
0.255491 0.197025 0.000000
0.276395 0.227922 0.000000
0.287315 0.258734 0.000000
0.277006 0.289798 0.000000
0.265636 0.324588 0.000000
0.247169 0.365962 0.000000
0.225738 0.415807 0.000000
0.199060 0.484436 0.000000
0.196862 0.551154 0.000000
0.181592 0.649427 0.000000
0.197006 0.744504 0.000000
0.229701 0.836297 0.000000
0.320399 0.913646 0.000000
0.530289 0.969299 0.000000
1.000000 0.977379 0.000000
0.000000 0.188100 0.000000
0.055426 0.195523 0.000000
0.100599 0.204783 0.000000
0.135282 0.215816 0.000000
0.163723 0.229696 0.000000
0.181820 0.251996 0.000000
0.192010 0.281757 0.000000
0.190118 0.320740 0.000000
0.183911 0.364696 0.000000
0.170417 0.416836 0.000000
0.159291 0.472377 0.000000
0.148357 0.542638 0.000000
0.151954 0.605845 0.000000
0.153944 0.697233 0.000000
0.169121 0.791872 0.000000
0.215790 0.864742 0.000000
0.295356 0.928502 0.000000
0.521292 0.977033 0.000000
1.000000 0.982656 0.000000
0.000000 0.242542 0.000000
0.029270 0.252976 0.000000
0.052335 0.272794 0.000000
0.071476 0.295378 0.000000
0.086384 0.320368 0.000000
0.097247 0.345376 0.000000
0.103383 0.374080 0.000000
0.103269 0.409006 0.000000
0.101654 0.448813 0.000000
0.100513 0.496820 0.000000
0.101902 0.552671 0.000000
0.105843 0.619120 0.000000
0.115150 0.685317 0.000000
0.129056 0.761910 0.000000
0.148888 0.852903 0.000000
0.204764 0.899387 0.000000
0.272828 0.947718 0.000000
0.518720 0.984861 0.000000
1.000000 0.988296 0.000000
0.000000 0.522196 0.000000
0.007382 0.520945 0.000000
0.015152 0.518469 0.000000
0.022943 0.521459 0.000000
0.030699 0.530095 0.000000
0.037771 0.549006 0.000000
0.044761 0.573028 0.000000
0.051085 0.608755 0.000000
0.057976 0.647332 0.000000
0.065461 0.686359 0.000000
0.073707 0.731938 0.000000
0.083955 0.777221 0.000000
0.096576 0.821759 0.000000
0.114796 0.865128 0.000000
0.140227 0.926568 0.000000
0.195531 0.944533 0.000000
0.252920 0.970731 0.000000
0.521068 0.992622 0.000000
1.000000 0.994126 0.000000
0.000000 1.000000 0.000000
0.005891 1.000000 0.000000
0.011714 1.000000 0.000000
0.017339 1.000000 0.000000
0.022611 1.000000 0.000000
0.027600 1.000000 0.000000
0.032806 1.000000 0.000000
0.038320 1.000000 0.000000
0.045012 1.000000 0.000000
0.052899 1.000000 0.000000
0.062319 1.000000 0.000000
0.074297 1.000000 0.000000
0.088907 1.000000 0.000000
0.107398 1.000000 0.000000
0.134594 1.000000 0.000000
0.188178 1.000000 0.000000
0.242411 1.000000 0.000000
0.522181 1.000000 0.000000
1.000000 1.000000 0.000000
0.000000 0.000000 0.055223
0.478150 0.000000 0.055060
0.757274 0.000000 0.055057
0.811710 0.000000 0.055003
0.865303 0.000000 0.054988
0.892684 0.000000 0.054922
0.911256 0.000000 0.055033
0.925839 0.000000 0.055034
0.937711 0.000000 0.055101
0.947121 0.000000 0.055126
0.955019 0.000000 0.055059
0.961755 0.000000 0.054919
0.967284 0.000000 0.054918
0.972410 0.000000 0.054871
0.977353 0.000000 0.054997
0.982603 0.000000 0.054933
0.988245 0.000000 0.055078
0.994119 0.000000 0.055100
1.000000 0.000000 0.055100
0.000000 0.005879 0.055212
0.479201 0.007373 0.055080
0.746818 0.029356 0.055010
0.804436 0.055334 0.054964
0.859780 0.073532 0.055029
0.885235 0.134667 0.054937
0.903480 0.178037 0.055032
0.916039 0.222993 0.055055
0.926295 0.268198 0.054996
0.934513 0.313642 0.054974
0.942003 0.352543 0.055011
0.948926 0.391086 0.054969
0.955211 0.427170 0.054956
0.962199 0.451184 0.054996
0.969275 0.469979 0.055005
0.977051 0.478184 0.055009
0.984868 0.480982 0.055055
0.992614 0.479377 0.055061
1.000000 0.478368 0.055068
0.000000 0.011737 0.055106
0.481207 0.015130 0.055056
0.727162 0.052505 0.054990
0.795314 0.100553 0.054995
0.851050 0.147127 0.054998
0.870979 0.238044 0.055019
0.884866 0.314502 0.054976
0.894067 0.381033 0.054971
0.898079 0.447374 0.054945
0.899515 0.503132 0.054962
0.898467 0.550953 0.055015
0.896784 0.590796 0.054992
0.896515 0.625852 0.055032
0.902602 0.654592 0.055000
0.913457 0.679628 0.055016
0.928374 0.704753 0.055038
0.947516 0.727125 0.055014
0.970622 0.746759 0.055007
1.000000 0.757272 0.055048
0.000000 0.017374 0.054929
0.478393 0.022956 0.054995
0.704752 0.071634 0.054979
0.784181 0.135288 0.054958
0.830908 0.208135 0.055017
0.846084 0.302750 0.055022
0.848017 0.394109 0.054993
0.851624 0.457444 0.054998
0.840732 0.527629 0.054989
0.829667 0.583131 0.055033
0.816105 0.635316 0.054997
0.809861 0.679239 0.055011
0.807871 0.718313 0.055005
0.818214 0.748029 0.054965
0.836287 0.770316 0.054974
0.864697 0.784202 0.054946
0.899454 0.795317 0.054962
0.944684 0.804453 0.054966
1.000000 0.811732 0.055004
0.000000 0.022628 0.054932
0.469793 0.030717 0.054969
0.679609 0.086497 0.054992
0.770307 0.163729 0.054987
0.803052 0.255553 0.054977
0.818362 0.350516 0.055017
0.803180 0.448874 0.054986
0.800970 0.515578 0.054996
0.774291 0.584212 0.054996
0.752879 0.633969 0.055017
0.734326 0.675372 0.054992
0.723026 0.710178 0.055012
0.712616 0.741254 0.054997
0.723667 0.772097 0.055029
0.744421 0.803046 0.054994
0.791895 0.830938 0.055014
0.852887 0.851050 0.055017
0.926440 0.859753 0.054989
1.000000 0.865256 0.054983
0.000000 0.027581 0.054850
0.451216 0.037816 0.054959
0.654621 0.097403 0.054997
0.748012 0.181786 0.054979
0.772111 0.276394 0.055017
0.786123 0.372660 0.055007
0.760839 0.462980 0.054963
0.751085 0.531072 0.055020
0.714071 0.585853 0.055015
0.682782 0.630902 0.054978
0.652894 0.671791 0.054995
0.632376 0.711221 0.055016
0.617754 0.749552 0.055009
0.627326 0.786121 0.054992
0.649488 0.818373 0.054996
0.697208 0.846061 0.054977
0.761971 0.870982 0.054994
0.865362 0.885292 0.054996
1.000000 0.892766 0.055095
0.000000 0.032699 0.054888
0.427000 0.044785 0.054928
0.625825 0.103433 0.055055
0.718321 0.192156 0.055006
0.741261 0.287371 0.055000
0.749546 0.382264 0.055006
0.719971 0.466047 0.054990
0.696337 0.533591 0.055001
0.646753 0.578896 0.054990
0.612981 0.620948 0.055018
0.576224 0.653887 0.055011
0.557149 0.689795 0.054983
0.533966 0.719940 0.055005
0.537058 0.760830 0.054972
0.551098 0.803177 0.054995
0.605856 0.848027 0.055004
0.685535 0.884850 0.055000
0.821891 0.903527 0.054992
1.000000 0.911380 0.054968
0.000000 0.038203 0.054923
0.391105 0.051076 0.054965
0.590854 0.103233 0.055018
0.679220 0.190122 0.055021
0.710177 0.276954 0.054986
0.711210 0.367609 0.055007
0.689837 0.442843 0.054997
0.659674 0.505205 0.054996
0.612725 0.544589 0.054992
0.569347 0.584868 0.055006
0.526962 0.619542 0.055004
0.494780 0.659657 0.055000
0.466430 0.696344 0.054999
0.468947 0.751076 0.055001
0.484419 0.800962 0.054993
0.542567 0.851635 0.054962
0.618986 0.894074 0.054989
0.777030 0.916062 0.054994
1.000000 0.925867 0.055002
0.000000 0.044951 0.055026
0.352412 0.057990 0.055015
0.550963 0.101523 0.055032
0.635316 0.183914 0.055003
0.675360 0.265625 0.055046
0.671788 0.347084 0.055013
0.653904 0.423772 0.055022
0.619553 0.473048 0.054984
0.576615 0.508339 0.054994
0.533514 0.544313 0.054995
0.491673 0.576615 0.055002
0.455430 0.612738 0.055002
0.421105 0.646763 0.055015
0.414150 0.714078 0.055016
0.415821 0.774288 0.055019
0.472354 0.840730 0.054980
0.552615 0.898043 0.054994
0.731794 0.926305 0.055011
1.000000 0.937799 0.054995
0.000000 0.052873 0.055069
0.313582 0.065493 0.054982
0.503075 0.100446 0.055022
0.583138 0.170317 0.055002
0.633962 0.247171 0.055014
0.630903 0.317245 0.054996
0.620940 0.387044 0.055027
0.584866 0.430664 0.055000
0.544321 0.466489 0.055005
0.499994 0.500013 0.055013
0.455667 0.533516 0.055006
0.415124 0.569349 0.055003
0.379062 0.612974 0.054999
0.369107 0.682823 0.054986
0.366021 0.752868 0.055017
0.416884 0.829702 0.055003
0.496858 0.899481 0.055033
0.686579 0.934503 0.055023
1.000000 0.947209 0.055093
0.000000 0.062318 0.055045
0.268298 0.073714 0.054998
0.447341 0.101939 0.054997
0.527647 0.159257 0.054985
0.584185 0.225679 0.054991
0.585846 0.285903 0.054960
0.578904 0.353256 0.055005
0.544580 0.387262 0.054994
0.508326 0.423392 0.054977
0.466493 0.455680 0.055018
0.423392 0.491675 0.054985
0.380437 0.526941 0.055008
0.346123 0.576192 0.055005
0.328230 0.652865 0.054993
0.324614 0.734303 0.054981
0.364695 0.816119 0.055001
0.449084 0.898461 0.055012
0.647779 0.941989 0.054987
1.000000 0.955082 0.054995
0.000000 0.074181 0.055007
0.222982 0.083969 0.055049
0.381042 0.105944 0.055023
0.457458 0.148409 0.055004
0.515577 0.199031 0.054991
0.531052 0.248922 0.055006
0.533591 0.303641 0.055006
0.505253 0.340335 0.054992
0.473043 0.380449 0.054997
0.430645 0.415122 0.054997
0.387276 0.455431 0.054985
0.340314 0.494755 0.054986
0.310192 0.557201 0.055018
0.288771 0.632425 0.055004
0.289813 0.722975 0.055008
0.320790 0.809884 0.054985
0.409108 0.896700 0.055011
0.608919 0.948877 0.054992
1.000000 0.961829 0.055029
0.000000 0.088787 0.055036
0.177958 0.096559 0.055042
0.314426 0.115150 0.055011
0.394072 0.151974 0.055021
0.448870 0.196823 0.055009
0.462953 0.239185 0.055013
0.466013 0.280063 0.054962
0.442853 0.310209 0.055019
0.423779 0.346120 0.054997
0.387014 0.379058 0.055013
0.353258 0.421110 0.055010
0.303633 0.466418 0.054979
0.280053 0.533981 0.055023
0.250461 0.617727 0.055017
0.258696 0.712627 0.054978
0.281723 0.807873 0.055005
0.374110 0.896512 0.054997
0.573234 0.955180 0.055023
1.000000 0.967354 0.055006
0.000000 0.107322 0.054988
0.134823 0.114802 0.054984
0.238074 0.129092 0.054943
0.302744 0.153945 0.054955
0.350555 0.181638 0.054974
0.372681 0.213871 0.054993
0.382185 0.250449 0.054983
0.367591 0.288765 0.054989
0.347126 0.328204 0.055000
0.317201 0.369099 0.055006
0.285921 0.414149 0.054975
0.248902 0.468959 0.054984
0.239193 0.537040 0.055021
0.213861 0.627331 0.054977
0.227898 0.723617 0.055010
0.251942 0.818198 0.055008
0.345354 0.902559 0.054983
0.548966 0.962141 0.055032
1.000000 0.972475 0.055018
0.000000 0.134621 0.054989
0.073489 0.140195 0.055013
0.147061 0.148956 0.055035
0.208092 0.169135 0.055012
0.255559 0.196935 0.055005
0.276391 0.227879 0.055007
0.287348 0.258711 0.055020
0.277009 0.289816 0.055006
0.265662 0.324613 0.055008
0.247164 0.365991 0.055048
0.225715 0.415788 0.054985
0.199028 0.484411 0.055006
0.196817 0.551141 0.055001
0.181642 0.649466 0.054987
0.196916 0.744452 0.054994
0.229682 0.836287 0.054998
0.320294 0.913433 0.055007
0.530319 0.969235 0.055039
1.000000 0.977401 0.054991
0.000000 0.188118 0.054968
0.055375 0.195535 0.054968
0.100565 0.204662 0.054959
0.135264 0.215791 0.055002
0.163729 0.229694 0.054973
0.181779 0.251988 0.055012
0.192080 0.281742 0.054997
0.190110 0.320773 0.055010
0.183881 0.364681 0.055016
0.170291 0.416902 0.055003
0.159265 0.472365 0.054988
0.148405 0.542555 0.054992
0.151975 0.605909 0.055028
0.153943 0.697240 0.054932
0.169116 0.791896 0.055007
0.215780 0.864745 0.054989
0.295211 0.928383 0.055063
0.521850 0.977012 0.054997
1.000000 0.982662 0.055010
0.000000 0.242437 0.055006
0.029264 0.253067 0.055014
0.052352 0.272893 0.055044
0.071622 0.295167 0.055037
0.086521 0.320311 0.055021
0.097408 0.345352 0.054995
0.103461 0.374152 0.055033
0.103291 0.409119 0.055009
0.101560 0.449057 0.054991
0.100536 0.496820 0.055043
0.101963 0.552638 0.055000
0.105935 0.618924 0.054984
0.115135 0.685549 0.055052
0.129047 0.761961 0.054925
0.148915 0.852856 0.055040
0.204662 0.899447 0.054949
0.272964 0.947648 0.055057
0.518924 0.984856 0.054983
1.000000 0.988333 0.055058
0.000000 0.521953 0.054997
0.007366 0.521171 0.054968
0.015130 0.519112 0.055018
0.022980 0.521780 0.055028
0.030751 0.530408 0.055046
0.037849 0.548980 0.055035
0.044824 0.573107 0.055020
0.051124 0.608866 0.054956
0.058016 0.647686 0.054962
0.065502 0.686488 0.055056
0.073702 0.731765 0.055007
0.083973 0.777027 0.055012
0.096540 0.822016 0.055020
0.114741 0.865256 0.054971
0.140191 0.926508 0.054998
0.195525 0.944594 0.054983
0.253074 0.970725 0.054993
0.521147 0.992631 0.054963
1.000000 0.994178 0.054961
0.000000 1.000000 0.054828
0.005827 1.000000 0.054885
0.011679 1.000000 0.055009
0.017362 1.000000 0.055071
0.022619 1.000000 0.055061
0.027556 1.000000 0.055020
0.032681 1.000000 0.054891
0.038199 1.000000 0.054958
0.044941 1.000000 0.054975
0.052833 1.000000 0.055079
0.062266 1.000000 0.054973
0.074208 1.000000 0.054959
0.088792 1.000000 0.054963
0.107244 1.000000 0.055096
0.134668 1.000000 0.054955
0.188080 1.000000 0.055020
0.242408 1.000000 0.054973
0.521983 1.000000 0.054990
1.000000 1.000000 0.054890
0.000000 0.000000 0.109989
0.477932 0.000000 0.109963
0.757700 0.000000 0.110024
0.811917 0.000000 0.109825
0.865395 0.000000 0.110059
0.892652 0.000000 0.109885
0.911099 0.000000 0.110058
0.925760 0.000000 0.110063
0.937699 0.000000 0.109999
0.947168 0.000000 0.109966
0.955080 0.000000 0.110075
0.961805 0.000000 0.109995
0.967282 0.000000 0.109940
0.972396 0.000000 0.110000
0.977314 0.000000 0.109962
0.982576 0.000000 0.110008
0.988243 0.000000 0.109934