# vtk DataFile Version 2.0
Mesh for Fierro
ASCII 
DATASET UNSTRUCTURED_GRID

POINTS 2527 float
0.000000 0.000000 0.000000
0.177253 0.000000 0.000000
0.331536 0.000000 0.000000
0.457631 0.000000 0.000000
0.555901 0.000000 0.000000
0.630456 0.000000 0.000000
0.690244 0.000000 0.000000
0.739144 0.000000 0.000000
0.780337 0.000000 0.000000
0.814631 0.000000 0.000000
0.843937 0.000000 0.000000
0.869854 0.000000 0.000000
0.892527 0.000000 0.000000
0.913154 0.000000 0.000000
0.932453 0.000000 0.000000
0.950124 0.000000 0.000000
0.967053 0.000000 0.000000
0.983669 0.000000 0.000000
1.000000 0.000000 0.000000
0.000000 0.016319 0.000000
0.176321 0.017730 0.000000
0.329627 0.021212 0.000000
0.454880 0.027985 0.000000
0.552488 0.036040 0.000000
0.626708 0.046217 0.000000
0.686127 0.057483 0.000000
0.734153 0.069999 0.000000
0.774453 0.083907 0.000000
0.808394 0.098092 0.000000
0.837073 0.111526 0.000000
0.862862 0.125155 0.000000
0.885695 0.138513 0.000000
0.907022 0.149663 0.000000
0.926865 0.158994 0.000000
0.945972 0.166905 0.000000
0.964051 0.171866 0.000000
0.982273 0.176326 0.000000
1.000000 0.177193 0.000000
0.000000 0.032945 0.000000
0.171862 0.035957 0.000000
0.323051 0.042488 0.000000
0.445937 0.055428 0.000000
0.542330 0.070824 0.000000
0.615598 0.090250 0.000000
0.674514 0.111792 0.000000
0.722041 0.135925 0.000000
0.761056 0.161936 0.000000
0.794184 0.187954 0.000000
0.822612 0.214052 0.000000
0.848193 0.238365 0.000000
0.871097 0.262608 0.000000
0.893467 0.282885 0.000000
0.914875 0.299793 0.000000
0.936416 0.313716 0.000000
0.957504 0.323049 0.000000
0.978792 0.329625 0.000000
1.000000 0.331552 0.000000
0.000000 0.049859 0.000000
0.166900 0.054023 0.000000
0.313718 0.063583 0.000000
0.433466 0.082378 0.000000
0.527384 0.103843 0.000000
0.598141 0.131390 0.000000
0.655031 0.161793 0.000000
0.700293 0.194760 0.000000
0.736883 0.231121 0.000000
0.767273 0.265320 0.000000
0.793836 0.300590 0.000000
0.819778 0.333130 0.000000
0.842961 0.365850 0.000000
0.867123 0.392366 0.000000
0.891730 0.414931 0.000000
0.917619 0.433470 0.000000
0.944580 0.445935 0.000000
0.972010 0.454882 0.000000
1.000000 0.457623 0.000000
0.000000 0.067529 0.000000
0.159025 0.073129 0.000000
0.299785 0.085131 0.000000
0.414937 0.108269 0.000000
0.506793 0.135427 0.000000
0.574594 0.169460 0.000000
0.629461 0.206664 0.000000
0.672384 0.246935 0.000000
0.706136 0.290625 0.000000
0.734574 0.332672 0.000000
0.759971 0.373445 0.000000
0.785568 0.411423 0.000000
0.808854 0.450061 0.000000
0.836069 0.480790 0.000000
0.864575 0.506800 0.000000
0.896156 0.527387 0.000000
0.929171 0.542330 0.000000
0.963964 0.552486 0.000000
1.000000 0.555905 0.000000
0.000000 0.086846 0.000000
0.149678 0.092973 0.000000
0.282872 0.106538 0.000000
0.392363 0.132872 0.000000
0.480785 0.163935 0.000000
0.545192 0.203186 0.000000
0.597829 0.244679 0.000000
0.637397 0.290224 0.000000
0.666968 0.338617 0.000000
0.694345 0.384823 0.000000
0.717830 0.430753 0.000000
0.742567 0.471366 0.000000
0.766214 0.511529 0.000000
0.796813 0.545185 0.000000
0.830539 0.574589 0.000000
0.868611 0.598139 0.000000
0.909754 0.615598 0.000000
0.953779 0.626708 0.000000
1.000000 0.630451 0.000000
0.000000 0.107525 0.000000
0.138544 0.114309 0.000000
0.262610 0.128900 0.000000
0.365857 0.157042 0.000000
0.450053 0.191145 0.000000
0.511524 0.233785 0.000000
0.562740 0.278928 0.000000
0.598102 0.328346 0.000000
0.624366 0.380455 0.000000
0.650277 0.429277 0.000000
0.671766 0.478111 0.000000
0.696596 0.521469 0.000000
0.721071 0.562737 0.000000
0.755325 0.597835 0.000000
0.793339 0.629460 0.000000
0.838206 0.655030 0.000000
0.888203 0.674514 0.000000
0.942523 0.686128 0.000000
1.000000 0.690249 0.000000
0.000000 0.130158 0.000000
0.125170 0.137137 0.000000
0.238378 0.151810 0.000000
0.333135 0.180222 0.000000
0.411421 0.214432 0.000000
0.471370 0.257434 0.000000
0.521468 0.303404 0.000000
0.553392 0.352681 0.000000
0.577960 0.404675 0.000000
0.601937 0.455977 0.000000
0.622925 0.506202 0.000000
0.647318 0.553394 0.000000
0.671656 0.598103 0.000000
0.709774 0.637395 0.000000
0.753065 0.672386 0.000000
0.805241 0.700294 0.000000
0.864076 0.722041 0.000000
0.930000 0.734152 0.000000
1.000000 0.739147 0.000000
0.000000 0.156064 0.000000
0.111534 0.162928 0.000000
0.214049 0.177387 0.000000
0.300594 0.206166 0.000000
0.373441 0.240027 0.000000
0.430753 0.282170 0.000000
0.478105 0.328231 0.000000
0.506210 0.377080 0.000000
0.530035 0.427507 0.000000
0.551753 0.479004 0.000000
0.572489 0.530046 0.000000
0.595327 0.577960 0.000000
0.619541 0.624366 0.000000
0.661385 0.666969 0.000000
0.709375 0.706135 0.000000
0.768878 0.736882 0.000000
0.838062 0.761055 0.000000
0.916094 0.774456 0.000000
1.000000 0.780343 0.000000
0.000000 0.185363 0.000000
0.098082 0.191608 0.000000
0.187953 0.205814 0.000000
0.265317 0.232726 0.000000
0.332675 0.265426 0.000000
0.384822 0.305655 0.000000
0.429275 0.349722 0.000000
0.455986 0.398067 0.000000
0.479006 0.448244 0.000000
0.499995 0.500006 0.000000
0.520992 0.551751 0.000000
0.544016 0.601937 0.000000
0.570725 0.650276 0.000000
0.615178 0.694344 0.000000
0.667326 0.734575 0.000000
0.734685 0.767274 0.000000
0.812047 0.794189 0.000000
0.901904 0.808389 0.000000
1.000000 0.814629 0.000000
0.000000 0.219663 0.000000
0.083913 0.225546 0.000000
0.161938 0.238945 0.000000
0.231122 0.263118 0.000000
0.290624 0.293863 0.000000
0.338616 0.333032 0.000000
0.380457 0.375636 0.000000
0.404672 0.422035 0.000000
0.427507 0.469967 0.000000
0.448257 0.520997 0.000000
0.469962 0.572489 0.000000
0.493795 0.622925 0.000000
0.521888 0.671767 0.000000
0.569250 0.717829 0.000000
0.626551 0.759975 0.000000
0.699409 0.793833 0.000000
0.785959 0.822618 0.000000
0.888487 0.837078 0.000000
1.000000 0.843953 0.000000
0.000000 0.260857 0.000000
0.069995 0.265849 0.000000
0.135923 0.277958 0.000000
0.194761 0.299706 0.000000
0.246934 0.327617 0.000000
0.290225 0.362603 0.000000
0.328345 0.401897 0.000000
0.352682 0.446608 0.000000
0.377077 0.493792 0.000000
0.398062 0.544019 0.000000
0.422038 0.595325 0.000000
0.446606 0.647319 0.000000
0.478531 0.696598 0.000000
0.528633 0.742562 0.000000
0.588584 0.785571 0.000000
0.666858 0.819773 0.000000
0.761623 0.848198 0.000000
0.874843 0.862841 0.000000
1.000000 0.869769 0.000000
0.000000 0.309754 0.000000
0.057486 0.313871 0.000000
0.111802 0.325492 0.000000
0.161787 0.344973 0.000000
0.206668 0.370537 0.000000
0.244678 0.402169 0.000000
0.278928 0.437266 0.000000
0.303404 0.478533 0.000000
0.328231 0.521891 0.000000
0.349723 0.570722 0.000000
0.375635 0.619546 0.000000
0.401897 0.671653 0.000000
0.437263 0.721073 0.000000
0.488473 0.766212 0.000000
0.549939 0.808853 0.000000
0.634133 0.842960 0.000000
0.737404 0.871080 0.000000
0.861441 0.885747 0.000000
1.000000 0.892532 0.000000
0.000000 0.369546 0.000000
0.046216 0.373291 0.000000
0.090242 0.384394 0.000000
0.131395 0.401857 0.000000
0.169456 0.425406 0.000000
0.203187 0.454810 0.000000
0.233789 0.488468 0.000000
0.257435 0.528630 0.000000
0.282172 0.569249 0.000000
0.305656 0.615179 0.000000
0.333032 0.661383 0.000000
0.362603 0.709775 0.000000
0.402171 0.755322 0.000000
0.454810 0.796813 0.000000
0.519219 0.836075 0.000000
0.607641 0.867127 0.000000
0.717126 0.893477 0.000000
0.850326 0.906975 0.000000
1.000000 0.913078 0.000000
0.000000 0.444097 0.000000
0.036041 0.447513 0.000000
0.070832 0.457675 0.000000
0.103840 0.472621 0.000000
0.135427 0.493208 0.000000
0.163931 0.519209 0.000000
0.191142 0.549944 0.000000
0.214433 0.588584 0.000000
0.240023 0.626554 0.000000
0.265426 0.667325 0.000000
0.293862 0.709375 0.000000
0.327617 0.753067 0.000000
0.370537 0.793333 0.000000
0.425405 0.830542 0.000000
0.493206 0.864570 0.000000
0.585060 0.891732 0.000000
0.700230 0.914856 0.000000
0.840945 0.926921 0.000000
1.000000 0.932475 0.000000
0.000000 0.542375 0.000000
0.027983 0.545114 0.000000
0.055418 0.554057 0.000000
0.082379 0.566525 0.000000
0.108268 0.585062 0.000000
0.132874 0.607638 0.000000
0.157042 0.634142 0.000000
0.180223 0.666861 0.000000
0.206169 0.699407 0.000000
0.232726 0.734684 0.000000
0.263120 0.768879 0.000000
0.299704 0.805239 0.000000
0.344975 0.838211 0.000000
0.401858 0.868607 0.000000
0.472621 0.896160 0.000000
0.566526 0.917620 0.000000
0.686294 0.936416 0.000000
0.833080 0.945957 0.000000
1.000000 0.950137 0.000000
0.000000 0.668456 0.000000
0.021204 0.670385 0.000000
0.042500 0.676968 0.000000
0.063583 0.686296 0.000000
0.085145 0.700232 0.000000
0.106516 0.717122 0.000000
0.128916 0.737418 0.000000
0.151808 0.761624 0.000000
0.177386 0.785954 0.000000
0.205813 0.812048 0.000000
0.238942 0.838062 0.000000
0.277960 0.864077 0.000000
0.325488 0.888199 0.000000
0.384396 0.909756 0.000000
0.457672 0.929169 0.000000
0.554058 0.944579 0.000000
0.676965 0.957506 0.000000
0.828095 0.964072 0.000000
1.000000 0.967131 0.000000
0.000000 0.822770 0.000000
0.017760 0.823641 0.000000
0.035929 0.828096 0.000000
0.054036 0.833084 0.000000
0.073077 0.840943 0.000000
0.093034 0.850326 0.000000
0.114253 0.861412 0.000000
0.137156 0.874827 0.000000
0.162924 0.888469 0.000000
0.191607 0.901911 0.000000
0.225548 0.916087 0.000000
0.265849 0.930004 0.000000
0.313873 0.942519 0.000000
0.373291 0.953781 0.000000
0.447514 0.963963 0.000000
0.545115 0.972014 0.000000
0.670385 0.978796 0.000000
0.823642 0.982241 0.000000
1.000000 0.983660 0.000000
0.000000 1.000000 0.000000
0.016320 1.000000 0.000000
0.032831 1.000000 0.000000
0.049880 1.000000 0.000000
0.067547 1.000000 0.000000
0.086934 1.000000 0.000000
0.107483 1.000000 0.000000
0.130226 1.000000 0.000000
0.156058 1.000000 0.000000
0.185369 1.000000 0.000000
0.219665 1.000000 0.000000
0.260854 1.000000 0.000000
0.309752 1.000000 0.000000
0.369549 1.000000 0.000000
0.444094 1.000000 0.000000
0.542378 1.000000 0.000000
0.668444 1.000000 0.000000
0.822806 1.000000 0.000000
1.000000 1.000000 0.000000
0.000000 0.000000 0.055015
0.177244 0.000000 0.054995
0.331534 0.000000 0.055001
0.457632 0.000000 0.055002
0.555900 0.000000 0.055000
[...]
POINT_DATA 2527 
VECTORS pos float 
0.000000 0.000000 0.000000
0.177253 0.000000 0.000000
0.331536 0.000000 0.000000
0.457631 0.000000 0.000000
0.555901 0.000000 0.000000
0.630456 0.000000 0.000000
0.690244 0.000000 0.000000
0.739144 0.000000 0.000000
0.780337 0.000000 0.000000
0.814631 0.000000 0.000000
0.843937 0.000000 0.000000
0.869854 0.000000 0.000000
0.892527 0.000000 0.000000
0.913154 0.000000 0.000000
0.932453 0.000000 0.000000
0.950124 0.000000 0.000000
0.967053 0.000000 0.000000
0.983669 0.000000 0.000000
1.000000 0.000000 0.000000
0.000000 0.016319 0.000000
0.176321 0.017730 0.000000
0.329627 0.021212 0.000000
0.454880 0.027985 0.000000
0.552488 0.036040 0.000000
0.626708 0.046217 0.000000
0.686127 0.057483 0.000000
0.734153 0.069999 0.000000
0.774453 0.083907 0.000000
0.808394 0.098092 0.000000
0.837073 0.111526 0.000000
0.862862 0.125155 0.000000
0.885695 0.138513 0.000000
0.907022 0.149663 0.000000
0.926865 0.158994 0.000000
0.945972 0.166905 0.000000
0.964051 0.171866 0.000000
0.982273 0.176326 0.000000
1.000000 0.177193 0.000000
0.000000 0.032945 0.000000
0.171862 0.035957 0.000000
0.323051 0.042488 0.000000
0.445937 0.055428 0.000000
0.542330 0.070824 0.000000
0.615598 0.090250 0.000000
0.674514 0.111792 0.000000
0.722041 0.135925 0.000000
0.761056 0.161936 0.000000
0.794184 0.187954 0.000000
0.822612 0.214052 0.000000
0.848193 0.238365 0.000000
0.871097 0.262608 0.000000
0.893467 0.282885 0.000000
0.914875 0.299793 0.000000
0.936416 0.313716 0.000000
0.957504 0.323049 0.000000
0.978792 0.329625 0.000000
1.000000 0.331552 0.000000
0.000000 0.049859 0.000000
0.166900 0.054023 0.000000
0.313718 0.063583 0.000000
0.433466 0.082378 0.000000
0.527384 0.103843 0.000000
0.598141 0.131390 0.000000
0.655031 0.161793 0.000000
0.700293 0.194760 0.000000
0.736883 0.231121 0.000000
0.767273 0.265320 0.000000
0.793836 0.300590 0.000000
0.819778 0.333130 0.000000
0.842961 0.365850 0.000000
0.867123 0.392366 0.000000
0.891730 0.414931 0.000000
0.917619 0.433470 0.000000
0.944580 0.445935 0.000000
0.972010 0.454882 0.000000
1.000000 0.457623 0.000000
0.000000 0.067529 0.000000
0.159025 0.073129 0.000000
0.299785 0.085131 0.000000
0.414937 0.108269 0.000000
0.506793 0.135427 0.000000
0.574594 0.169460 0.000000
0.629461 0.206664 0.000000
0.672384 0.246935 0.000000
0.706136 0.290625 0.000000
0.734574 0.332672 0.000000
0.759971 0.373445 0.000000
0.785568 0.411423 0.000000
0.808854 0.450061 0.000000
0.836069 0.480790 0.000000
0.864575 0.506800 0.000000
0.896156 0.527387 0.000000
0.929171 0.542330 0.000000
0.963964 0.552486 0.000000
1.000000 0.555905 0.000000
0.000000 0.086846 0.000000
0.149678 0.092973 0.000000
0.282872 0.106538 0.000000
0.392363 0.132872 0.000000
0.480785 0.163935 0.000000
0.545192 0.203186 0.000000
0.597829 0.244679 0.000000
0.637397 0.290224 0.000000
0.666968 0.338617 0.000000
0.694345 0.384823 0.000000
0.717830 0.430753 0.000000
0.742567 0.471366 0.000000
0.766214 0.511529 0.000000
0.796813 0.545185 0.000000
0.830539 0.574589 0.000000
0.868611 0.598139 0.000000
0.909754 0.615598 0.000000
0.953779 0.626708 0.000000
1.000000 0.630451 0.000000
0.000000 0.107525 0.000000
0.138544 0.114309 0.000000
0.262610 0.128900 0.000000
0.365857 0.157042 0.000000
0.450053 0.191145 0.000000
0.511524 0.233785 0.000000
0.562740 0.278928 0.000000
0.598102 0.328346 0.000000
0.624366 0.380455 0.000000
0.650277 0.429277 0.000000
0.671766 0.478111 0.000000
0.696596 0.521469 0.000000
0.721071 0.562737 0.000000
0.755325 0.597835 0.000000
0.793339 0.629460 0.000000
0.838206 0.655030 0.000000
0.888203 0.674514 0.000000
0.942523 0.686128 0.000000
1.000000 0.690249 0.000000
0.000000 0.130158 0.000000
0.125170 0.137137 0.000000
0.238378 0.151810 0.000000
0.333135 0.180222 0.000000
0.411421 0.214432 0.000000
0.471370 0.257434 0.000000
0.521468 0.303404 0.000000
0.553392 0.352681 0.000000
0.577960 0.404675 0.000000
0.601937 0.455977 0.000000
0.622925 0.506202 0.000000
0.647318 0.553394 0.000000
0.671656 0.598103 0.000000
0.709774 0.637395 0.000000
0.753065 0.672386 0.000000
0.805241 0.700294 0.000000
0.864076 0.722041 0.000000
0.930000 0.734152 0.000000
1.000000 0.739147 0.000000
0.000000 0.156064 0.000000
0.111534 0.162928 0.000000
0.214049 0.177387 0.000000
0.300594 0.206166 0.000000
0.373441 0.240027 0.000000
0.430753 0.282170 0.000000
0.478105 0.328231 0.000000
0.506210 0.377080 0.000000
0.530035 0.427507 0.000000
0.551753 0.479004 0.000000
0.572489 0.530046 0.000000
0.595327 0.577960 0.000000
0.619541 0.624366 0.000000
0.661385 0.666969 0.000000
0.709375 0.706135 0.000000
0.768878 0.736882 0.000000
0.838062 0.761055 0.000000
0.916094 0.774456 0.000000
1.000000 0.780343 0.000000
0.000000 0.185363 0.000000
0.098082 0.191608 0.000000
0.187953 0.205814 0.000000
0.265317 0.232726 0.000000
0.332675 0.265426 0.000000
0.384822 0.305655 0.000000
0.429275 0.349722 0.000000
0.455986 0.398067 0.000000
0.479006 0.448244 0.000000
0.499995 0.500006 0.000000
0.520992 0.551751 0.000000
0.544016 0.601937 0.000000
0.570725 0.650276 0.000000
0.615178 0.694344 0.000000
0.667326 0.734575 0.000000
0.734685 0.767274 0.000000
0.812047 0.794189 0.000000
0.901904 0.808389 0.000000
1.000000 0.814629 0.000000
0.000000 0.219663 0.000000
0.083913 0.225546 0.000000
0.161938 0.238945 0.000000
0.231122 0.263118 0.000000
0.290624 0.293863 0.000000
0.338616 0.333032 0.000000
0.380457 0.375636 0.000000
0.404672 0.422035 0.000000
0.427507 0.469967 0.000000
0.448257 0.520997 0.000000
0.469962 0.572489 0.000000
0.493795 0.622925 0.000000
0.521888 0.671767 0.000000
0.569250 0.717829 0.000000
0.626551 0.759975 0.000000
0.699409 0.793833 0.000000
0.785959 0.822618 0.000000
0.888487 0.837078 0.000000
1.000000 0.843953 0.000000
0.000000 0.260857 0.000000
0.069995 0.265849 0.000000
0.135923 0.277958 0.000000
0.194761 0.299706 0.000000
0.246934 0.327617 0.000000
0.290225 0.362603 0.000000
0.328345 0.401897 0.000000
0.352682 0.446608 0.000000
0.377077 0.493792 0.000000
0.398062 0.544019 0.000000
0.422038 0.595325 0.000000
0.446606 0.647319 0.000000
0.478531 0.696598 0.000000
0.528633 0.742562 0.000000
0.588584 0.785571 0.000000
0.666858 0.819773 0.000000
0.761623 0.848198 0.000000
0.874843 0.862841 0.000000
1.000000 0.869769 0.000000
0.000000 0.309754 0.000000
0.057486 0.313871 0.000000
0.111802 0.325492 0.000000
0.161787 0.344973 0.000000
0.206668 0.370537 0.000000
0.244678 0.402169 0.000000
0.278928 0.437266 0.000000
0.303404 0.478533 0.000000
0.328231 0.521891 0.000000
0.349723 0.570722 0.000000
0.375635 0.619546 0.000000
0.401897 0.671653 0.000000
0.437263 0.721073 0.000000
0.488473 0.766212 0.000000
0.549939 0.808853 0.000000
0.634133 0.842960 0.000000
0.737404 0.871080 0.000000
0.861441 0.885747 0.000000
1.000000 0.892532 0.000000
0.000000 0.369546 0.000000
0.046216 0.373291 0.000000
0.090242 0.384394 0.000000
0.131395 0.401857 0.000000
0.169456 0.425406 0.000000
0.203187 0.454810 0.000000
0.233789 0.488468 0.000000
0.257435 0.528630 0.000000
0.282172 0.569249 0.000000
0.305656 0.615179 0.000000
0.333032 0.661383 0.000000
0.362603 0.709775 0.000000
0.402171 0.755322 0.000000
0.454810 0.796813 0.000000
0.519219 0.836075 0.000000
0.607641 0.867127 0.000000
0.717126 0.893477 0.000000
0.850326 0.906975 0.000000
1.000000 0.913078 0.000000
0.000000 0.444097 0.000000
0.036041 0.447513 0.000000
0.070832 0.457675 0.000000
0.103840 0.472621 0.000000
0.135427 0.493208 0.000000
0.163931 0.519209 0.000000
0.191142 0.549944 0.000000
0.214433 0.588584 0.000000
0.240023 0.626554 0.000000
0.265426 0.667325 0.000000
0.293862 0.709375 0.000000
0.327617 0.753067 0.000000
0.370537 0.793333 0.000000
0.425405 0.830542 0.000000
0.493206 0.864570 0.000000
0.585060 0.891732 0.000000
0.700230 0.914856 0.000000
0.840945 0.926921 0.000000
1.000000 0.932475 0.000000
0.000000 0.542375 0.000000
0.027983 0.545114 0.000000
0.055418 0.554057 0.000000
0.082379 0.566525 0.000000
0.108268 0.585062 0.000000
0.132874 0.607638 0.000000
0.157042 0.634142 0.000000
0.180223 0.666861 0.000000
0.206169 0.699407 0.000000
0.232726 0.734684 0.000000
0.263120 0.768879 0.000000
0.299704 0.805239 0.000000
0.344975 0.838211 0.000000
0.401858 0.868607 0.000000
0.472621 0.896160 0.000000
0.566526 0.917620 0.000000
0.686294 0.936416 0.000000
0.833080 0.945957 0.000000
1.000000 0.950137 0.000000
0.000000 0.668456 0.000000
0.021204 0.670385 0.000000
0.042500 0.676968 0.000000
0.063583 0.686296 0.000000
0.085145 0.700232 0.000000
0.106516 0.717122 0.000000
0.128916 0.737418 0.000000
0.151808 0.761624 0.000000
0.177386 0.785954 0.000000
0.205813 0.812048 0.000000
0.238942 0.838062 0.000000
0.277960 0.864077 0.000000
0.325488 0.888199 0.000000
0.384396 0.909756 0.000000
0.457672 0.929169 0.000000
0.554058 0.944579 0.000000
0.676965 0.957506 0.000000
0.828095 0.964072 0.000000
1.000000 0.967131 0.000000
0.000000 0.822770 0.000000
0.017760 0.823641 0.000000
0.035929 0.828096 0.000000
0.054036 0.833084 0.000000
0.073077 0.840943 0.000000
0.093034 0.850326 0.000000
0.114253 0.861412 0.000000
0.137156 0.874827 0.000000
0.162924 0.888469 0.000000
0.191607 0.901911 0.000000
0.225548 0.916087 0.000000
0.265849 0.930004 0.000000
0.313873 0.942519 0.000000
0.373291 0.953781 0.000000
0.447514 0.963963 0.000000
0.545115 0.972014 0.000000
0.670385 0.978796 0.000000
0.823642 0.982241 0.000000
1.000000 0.983660 0.000000
0.000000 1.000000 0.000000
0.016320 1.000000 0.000000
0.032831 1.000000 0.000000
0.049880 1.000000 0.000000
0.067547 1.000000 0.000000
0.086934 1.000000 0.000000
0.107483 1.000000 0.000000
0.130226 1.000000 0.000000
0.156058 1.000000 0.000000
0.185369 1.000000 0.000000
0.219665 1.000000 0.000000
0.260854 1.000000 0.000000
0.309752 1.000000 0.000000
0.369549 1.000000 0.000000
0.444094 1.000000 0.000000
0.542378 1.000000 0.000000
0.668444 1.000000 0.000000
0.822806 1.000000 0.000000
1.000000 1.000000 0.000000
0.000000 0.000000 0.055015
0.177244 0.000000 0.054995
0.331534 0.000000 0.055001
0.457632 0.000000 0.055002
0.555900 0.000000 0.055000
0.630456 0.000000 0.055000
0.690241 0.000000 0.055004
0.739148 0.000000 0.054996
0.780333 0.000000 0.055006
0.814635 0.000000 0.054996
0.843938 0.000000 0.055004
0.869790 0.000000 0.054985
0.892441 0.000000 0.054990
0.913092 0.000000 0.055033
0.932472 0.000000 0.055011
0.950184 0.000000 0.054992
0.967128 0.000000 0.054969
0.983822 0.000000 0.054987
1.000000 0.000000 0.055035
0.000000 0.016187 0.054988
0.176318 0.017733 0.055002
0.329627 0.021206 0.055002
0.454881 0.027988 0.054998
0.552486 0.036036 0.055001
0.626709 0.046221 0.054999
0.686126 0.057479 0.055002
0.734155 0.069998 0.055000
0.774451 0.083908 0.055000
0.808397 0.098093 0.054998
0.837077 0.111522 0.055005
0.862846 0.125156 0.055001
0.885714 0.138605 0.054998
0.907004 0.149714 0.055000
0.926886 0.159062 0.055000
0.945994 0.166902 0.055004
0.964030 0.171887 0.055003
0.982265 0.176320 0.054999
1.000000 0.177279 0.054993
0.000000 0.032860 0.054997
0.171885 0.035968 0.055003
0.323038 0.042480 0.055000
0.445937 0.055428 0.054999
0.542331 0.070821 0.055001
0.615597 0.090251 0.054998
0.674516 0.111791 0.055002
0.722039 0.135925 0.054999
0.761059 0.161935 0.055000
0.794184 0.187957 0.055001
0.822614 0.214060 0.054999
0.848193 0.238350 0.054999
0.871084 0.262596 0.054998
0.893470 0.282856 0.055001
0.914855 0.299768 0.055000
0.936420 0.313707 0.054998
0.957525 0.323038 0.054999
0.978789 0.329625 0.055002
1.000000 0.331525 0.054997
0.000000 0.049820 0.054959
0.166905 0.054012 0.055002
0.313707 0.063577 0.055000
0.433470 0.082381 0.055000
0.527387 0.103845 0.055000
0.598140 0.131390 0.054999
0.655029 0.161792 0.055001
0.700295 0.194761 0.055000
0.736882 0.231121 0.055000
0.767273 0.265318 0.054999
0.793833 0.300575 0.055000
0.819779 0.333138 0.055000
0.842951 0.365867 0.054998
0.867129 0.392368 0.054999
0.891736 0.414942 0.055000
0.917621 0.433468 0.055001
0.944569 0.445939 0.054999
0.972017 0.454881 0.054999
1.000000 0.457635 0.055005
0.000000 0.067518 0.054974
0.159051 0.073114 0.055000
0.299771 0.085149 0.055002
0.414939 0.108259 0.054998
0.506791 0.135431 0.055001
0.574597 0.169457 0.055000
0.629460 0.206668 0.055000
0.672382 0.246932 0.055000
0.706138 0.290628 0.055000
0.734573 0.332670 0.055000
0.759977 0.373461 0.055001
0.785562 0.411409 0.054999
0.808862 0.450066 0.055001
0.836070 0.480773 0.055003
0.864570 0.506790 0.055001
0.896155 0.527384 0.055000
0.929181 0.542330 0.055000
0.963960 0.552486 0.055001
1.000000 0.555899 0.054997
0.000000 0.086898 0.055040
0.149720 0.092993 0.055002
0.282857 0.106530 0.055001
0.392373 0.132874 0.055001
0.480772 0.163927 0.055001
0.545197 0.203186 0.054998
0.597825 0.244679 0.055001
0.637397 0.290224 0.055000
0.666967 0.338616 0.055000
0.694345 0.384822 0.055000
0.717827 0.430746 0.054999
0.742567 0.471368 0.055000
0.766211 0.511532 0.055000
0.796815 0.545198 0.054999
0.830542 0.574599 0.055001
0.868610 0.598142 0.055000
0.909747 0.615600 0.054999
0.953781 0.626708 0.055000
1.000000 0.630456 0.055004
0.000000 0.107561 0.054998
0.138590 0.114288 0.055003
0.262583 0.128915 0.055000
0.365870 0.157047 0.055000
0.450067 0.191140 0.055003
0.511535 0.233790 0.054998
0.562732 0.278926 0.055002
0.598101 0.328347 0.054999
0.624365 0.380457 0.055000
0.650276 0.429278 0.054999
0.671770 0.478115 0.055000
0.696596 0.521468 0.055000
0.721073 0.562731 0.055002
0.755319 0.597827 0.055000
0.793333 0.629458 0.054998
0.838207 0.655030 0.055000
0.888210 0.674513 0.055002
0.942520 0.686127 0.055000
1.000000 0.690245 0.054992
0.000000 0.130200 0.054984
0.125154 0.137156 0.054998
0.238356 0.151807 0.055000
0.333136 0.180220 0.055001
0.411409 0.214439 0.055000
0.471367 0.257433 0.055000
0.521467 0.303406 0.055000
0.553396 0.352678 0.055000
0.577963 0.404671 0.055000
0.601939 0.455976 0.055001
0.622925 0.506203 0.055000
0.647318 0.553394 0.055000
0.671655 0.598104 0.054999
0.709776 0.637395 0.055000
0.753066 0.672385 0.055001
0.805239 0.700293 0.055000
0.864075 0.722041 0.054999
0.930000 0.734154 0.055001
1.000000 0.739147 0.055005
0.000000 0.156066 0.054996
0.111517 0.162921 0.054999
0.214054 0.177387 0.055000
0.300582 0.206166 0.054998
0.373456 0.240024 0.055002
0.430750 0.282172 0.054998
0.478112 0.328232 0.055001
0.506205 0.377074 0.055000
0.530037 0.427508 0.055000
0.551755 0.479007 0.055000
0.572496 0.530039 0.055000
0.595328 0.577962 0.055000
0.619543 0.624364 0.055000
0.661384 0.666969 0.055000
0.709375 0.706135 0.055000
0.768879 0.736884 0.055000
0.838065 0.761057 0.055000
0.916094 0.774453 0.054999
1.000000 0.780339 0.054993
0.000000 0.185364 0.054998
0.098094 0.191604 0.055001
0.187956 0.205815 0.055001
0.265319 0.232726 0.055000
0.332669 0.265429 0.055000
0.384823 0.305654 0.055000
0.429274 0.349724 0.055000
0.455982 0.398064 0.055000
0.479000 0.448244 0.055000
0.500001 0.499996 0.055000
0.520995 0.551757 0.055000
0.544021 0.601942 0.055000
0.570724 0.650276 0.054999
0.615178 0.694344 0.055001
0.667326 0.734575 0.055000
0.734683 0.767271 0.055000
0.812044 0.794187 0.055000
0.901902 0.808395 0.055000
1.000000 0.814635 0.054998
0.000000 0.219669 0.055004
0.083905 0.225548 0.055000
0.161935 0.238944 0.055000
0.231120 0.263119 0.055000
0.290629 0.293861 0.055000
0.338617 0.333033 0.055000
0.380456 0.375634 0.055000
0.404675 0.422038 0.055000
0.427506 0.469959 0.055000
0.448246 0.520997 0.055000
0.469961 0.572498 0.055000
0.493794 0.622926 0.055000
0.521887 0.671767 0.055000
0.569254 0.717829 0.054999
0.626546 0.759974 0.055000
0.699422 0.793835 0.054999
0.785949 0.822614 0.054997
0.888483 0.837083 0.054999
1.000000 0.843975 0.055003
0.000000 0.260852 0.054997
0.069998 0.265846 0.054999
0.135925 0.277957 0.055000
0.194763 0.299705 0.055000
0.246931 0.327619 0.054999
0.290224 0.362603 0.055000
0.328346 0.401899 0.055000
0.352680 0.446604 0.055000
0.377075 0.493796 0.055000
0.398058 0.544023 0.055000
0.422039 0.595324 0.055000
0.446606 0.647320 0.055000
0.478533 0.696598 0.054999
0.528632 0.742564 0.055001
0.588578 0.785570 0.054999
0.666862 0.819775 0.055002
0.761644 0.848194 0.054996
0.874855 0.862850 0.055001
1.000000 0.869816 0.055029
0.000000 0.309762 0.055004
0.057488 0.313871 0.055003
0.111792 0.325491 0.055000
0.161783 0.344971 0.055000
0.206666 0.370534 0.055001
0.244682 0.402168 0.055001
0.278930 0.437260 0.054999
0.303402 0.478534 0.055000
0.328231 0.521885 0.055000
0.349724 0.570723 0.055000
0.375636 0.619546 0.055000
0.401896 0.671653 0.055001
0.437262 0.721070 0.054998
0.488475 0.766216 0.055002
0.549939 0.808862 0.054999
0.634158 0.842953 0.055003
0.737391 0.871106 0.055001
0.861450 0.885697 0.054995
1.000000 0.892422 0.054981
0.000000 0.369541 0.054999
0.046212 0.373295 0.054997
0.090251 0.384398 0.055000
0.131396 0.401860 0.055000
0.169461 0.425405 0.055000
0.203182 0.454810 0.054999
0.233785 0.488476 0.055001
0.257436 0.528631 0.055001
0.282171 0.569254 0.054999
0.305657 0.615178 0.055001
0.333030 0.661384 0.054999
0.362605 0.709775 0.055000
0.402166 0.755319 0.055000
0.454811 0.796817 0.054999
0.519204 0.836058 0.055001
0.607643 0.867133 0.054998
0.717112 0.893460 0.055002
0.850348 0.907016 0.054998
1.000000 0.913107 0.054966
0.000000 0.444104 0.055003
0.036051 0.447505 0.055002
0.070817 0.457675 0.055001
0.103841 0.472613 0.054998
0.135420 0.493207 0.055000
0.163941 0.519206 0.054999
0.191137 0.549940 0.054999
0.214431 0.588580 0.055000
0.240025 0.626546 0.055000
0.265425 0.667326 0.055000
0.293865 0.709375 0.055000
0.327615 0.753067 0.055000
0.370538 0.793334 0.054999
0.425405 0.830542 0.055001
0.493208 0.864576 0.054999
0.585064 0.891731 0.055001
0.700221 0.914867 0.054997
0.840972 0.926891 0.055004
1.000000 0.932475 0.055040
0.000000 0.542366 0.054998
0.027974 0.545122 0.054997
0.055434 0.554061 0.054999
0.082378 0.566535 0.055002
0.108275 0.585065 0.055001
0.132867 0.607648 0.054999
0.157049 0.634157 0.055001
0.180223 0.666859 0.055001
0.206166 0.699420 0.054998
0.232729 0.734683 0.055001
0.263117 0.768879 0.055000
0.299706 0.805238 0.055000
0.344970 0.838215 0.055000
0.401861 0.868605 0.054999
0.472614 0.896160 0.055000
0.566533 0.917621 0.055001
0.686280 0.936415 0.055001
0.833111 0.945971 0.054999
1.000000 0.950148 0.055030
0.000000 0.668470 0.055002
0.021221 0.670370 0.055004
0.042473 0.676950 0.055002
0.063586 0.686276 0.055000
0.085127 0.700221 0.054997
0.106537 0.717112 0.055001
0.128893 0.737386 0.055006
0.151809 0.761638 0.055000
0.177387 0.785951 0.055000
0.205813 0.812045 0.055000
0.238944 0.838063 0.055000
0.277957 0.864076 0.055000
0.325492 0.888207 0.055001
0.384397 0.909748 0.055000
0.457676 0.929184 0.055001
0.554060 0.944566 0.055000
0.676955 0.957528 0.055001
0.828129 0.964055 0.055002
1.000000 0.967205 0.055012
0.000000 0.822712 0.055000
0.017750 0.823686 0.054998
0.035941 0.828143 0.055002
0.054028 0.833127 0.054999
0.073106 0.840968 0.055007
0.092987 0.850353 0.055000
0.114302 0.861425 0.054997
0.137147 0.874852 0.054998
0.162916 0.888480 0.054995
0.191605 0.901905 0.055002
0.225548 0.916091 0.055000
0.265847 0.930002 0.055000
0.313870 0.942515 0.055002
0.373296 0.953785 0.054998
0.447505 0.963953 0.055001
0.545122 0.972022 0.054998
0.670369 0.978782 0.055002
0.823685 0.982252 0.054998
1.000000 0.983818 0.054966
0.000000 1.000000 0.054933
0.016199 1.000000 0.054954
0.032816 1.000000 0.055021
0.049845 1.000000 0.055039
0.067533 1.000000 0.055053
0.086903 1.000000 0.054964
0.107550 1.000000 0.054968
0.130174 1.000000 0.055015
0.156027 1.000000 0.054994
0.185364 1.000000 0.055004
0.219665 1.000000 0.054996
0.260851 1.000000 0.055004
0.309757 1.000000 0.054994
0.369545 1.000000 0.055003
0.444102 1.000000 0.054999
0.542370 1.000000 0.055001
0.668462 1.000000 0.054999
0.822739 1.000000 0.054999
1.000000 1.000000 0.054982
0.000000 0.000000 0.110039
0.177248 0.000000 0.109997
0.331544 0.000000 0.109998
0.457627 0.000000 0.110004
0.555902 0.000000 0.109997
0.630452 0.000000 0.110000
0.690250 0.000000 0.110001
0.739143 0.000000 0.109999
0.780339 0.000000 0.110000
0.814635 0.000000 0.110001
0.843971 0.000000 0.110008
0.869831 0.000000 0.110020
0.892434 0.000000 0.109995
0.913117 0.000000 0.109962
0.932474 0.000000 0.109968
0.950119 0.000000 0.109965
0.967186 0.000000 0.110015