# vtk DataFile Version 2.0
Mesh for Fierro
ASCII 
DATASET UNSTRUCTURED_GRID

POINTS 2527 float
0.000000 0.000000 0.000000
0.500025 0.000000 0.000000
0.810982 0.000000 0.000000
0.848646 0.000000 0.000000
0.886977 0.000000 0.000000
0.908656 0.000000 0.000000
0.923622 0.000000 0.000000
0.936186 0.000000 0.000000
0.946514 0.000000 0.000000
0.954751 0.000000 0.000000
0.961561 0.000000 0.000000
0.967241 0.000000 0.000000
0.971828 0.000000 0.000000
0.976032 0.000000 0.000000
0.980225 0.000000 0.000000
0.985087 0.000000 0.000000
0.990320 0.000000 0.000000
0.995521 0.000000 0.000000
1.000000 0.000000 0.000000
0.000000 0.004481 0.000000
0.503676 0.006832 0.000000
0.793360 0.031824 0.000000
0.830106 0.073486 0.000000
0.877559 0.080962 0.000000
0.897908 0.158183 0.000000
0.913268 0.203151 0.000000
0.923524 0.253117 0.000000
0.931496 0.303321 0.000000
0.938064 0.352488 0.000000
0.944404 0.394737 0.000000
0.950367 0.436426 0.000000
0.955996 0.473891 0.000000
0.962644 0.498641 0.000000
0.969630 0.516712 0.000000
0.977614 0.521218 0.000000
0.985457 0.519977 0.000000
0.993176 0.503629 0.000000
1.000000 0.499447 0.000000
0.000000 0.009621 0.000000
0.519348 0.014564 0.000000
0.767697 0.053538 0.000000
0.812149 0.119960 0.000000
0.869533 0.163877 0.000000
0.882720 0.274799 0.000000
0.892937 0.356776 0.000000
0.898788 0.427885 0.000000
0.900030 0.496854 0.000000
0.899240 0.552157 0.000000
0.895824 0.597954 0.000000
0.892416 0.633815 0.000000
0.891419 0.664667 0.000000
0.896674 0.691369 0.000000
0.910311 0.714203 0.000000
0.926949 0.740489 0.000000
0.946549 0.767531 0.000000
0.968210 0.793572 0.000000
1.000000 0.811407 0.000000
0.000000 0.014866 0.000000
0.521596 0.022410 0.000000
0.740606 0.073196 0.000000
0.804235 0.155466 0.000000
0.850350 0.234398 0.000000
0.856331 0.341982 0.000000
0.852520 0.437142 0.000000
0.852390 0.499605 0.000000
0.837067 0.566942 0.000000
0.821161 0.620097 0.000000
0.802491 0.669958 0.000000
0.792467 0.712302 0.000000
0.789677 0.747792 0.000000
0.796623 0.776151 0.000000
0.816549 0.793378 0.000000
0.844537 0.804196 0.000000
0.880133 0.812129 0.000000
0.926496 0.830026 0.000000
1.000000 0.848761 0.000000
0.000000 0.019715 0.000000
0.516841 0.030373 0.000000
0.714071 0.089792 0.000000
0.793498 0.183438 0.000000
0.819765 0.286567 0.000000
0.828276 0.387520 0.000000
0.803651 0.489687 0.000000
0.796728 0.554253 0.000000
0.763964 0.619926 0.000000
0.735523 0.666153 0.000000
0.713311 0.703095 0.000000
0.697292 0.732503 0.000000
0.685963 0.758314 0.000000
0.693751 0.787496 0.000000
0.713382 0.819846 0.000000
0.765771 0.850293 0.000000
0.836053 0.869514 0.000000
0.919104 0.877837 0.000000
1.000000 0.887519 0.000000
0.000000 0.023931 0.000000
0.498440 0.037339 0.000000
0.691265 0.103323 0.000000
0.776099 0.203283 0.000000
0.787538 0.306135 0.000000
0.797273 0.408173 0.000000
0.760001 0.497642 0.000000
0.745859 0.564295 0.000000
0.703933 0.612518 0.000000
0.664936 0.652129 0.000000
0.629735 0.688658 0.000000
0.602527 0.725079 0.000000
0.585402 0.761769 0.000000
0.591817 0.797255 0.000000
0.612524 0.828225 0.000000
0.657917 0.856362 0.000000
0.725140 0.882757 0.000000
0.841437 0.897809 0.000000
1.000000 0.908495 0.000000
0.000000 0.028151 0.000000
0.473847 0.044006 0.000000
0.664562 0.108608 0.000000
0.747826 0.210347 0.000000
0.758274 0.314105 0.000000
0.761810 0.414555 0.000000
0.720626 0.495256 0.000000
0.690091 0.561356 0.000000
0.633180 0.598879 0.000000
0.593318 0.636559 0.000000
0.552508 0.663788 0.000000
0.530147 0.696081 0.000000
0.504680 0.720677 0.000000
0.502320 0.760107 0.000000
0.510321 0.803771 0.000000
0.562982 0.852622 0.000000
0.643076 0.893040 0.000000
0.797070 0.913119 0.000000
1.000000 0.923254 0.000000
0.000000 0.032722 0.000000
0.436222 0.049630 0.000000
0.633699 0.107557 0.000000
0.712371 0.207566 0.000000
0.732459 0.302723 0.000000
0.725086 0.397443 0.000000
0.696055 0.469828 0.000000
0.657432 0.529425 0.000000
0.605242 0.560942 0.000000
0.555333 0.593961 0.000000
0.508198 0.622366 0.000000
0.470589 0.657406 0.000000
0.438693 0.690035 0.000000
0.435682 0.745845 0.000000
0.445717 0.796716 0.000000
0.500530 0.852499 0.000000
0.571991 0.898911 0.000000
0.746823 0.923496 0.000000
1.000000 0.936002 0.000000
0.000000 0.038430 0.000000
0.394564 0.055576 0.000000
0.597886 0.104147 0.000000
0.669982 0.197459 0.000000
0.703071 0.286656 0.000000
0.688647 0.370227 0.000000
0.663845 0.447454 0.000000
0.622412 0.491781 0.000000
0.574474 0.519915 0.000000
0.526040 0.548707 0.000000
0.480080 0.574513 0.000000
0.439006 0.605249 0.000000
0.401053 0.633174 0.000000
0.387530 0.704018 0.000000
0.379980 0.763942 0.000000
0.433068 0.837035 0.000000
0.502715 0.900004 0.000000
0.696496 0.931554 0.000000
1.000000 0.946519 0.000000
0.000000 0.045258 0.000000
0.352632 0.061940 0.000000
0.552180 0.100793 0.000000
0.620171 0.178847 0.000000
0.666169 0.264535 0.000000
0.652121 0.335085 0.000000
0.636560 0.406727 0.000000
0.593902 0.444706 0.000000
0.548678 0.473958 0.000000
0.499985 0.500025 0.000000
0.451261 0.526055 0.000000
0.406048 0.555307 0.000000
0.363480 0.593299 0.000000
0.347900 0.664926 0.000000
0.333804 0.735454 0.000000
0.379804 0.821080 0.000000
0.447601 0.899180 0.000000
0.647078 0.938108 0.000000
1.000000 0.954705 0.000000
0.000000 0.053458 0.000000
0.303614 0.068520 0.000000
0.497116 0.100039 0.000000
0.566990 0.162982 0.000000
0.619925 0.235938 0.000000
0.612522 0.296005 0.000000
0.598936 0.366857 0.000000
0.560995 0.394751 0.000000
0.519875 0.425491 0.000000
0.473982 0.451313 0.000000
0.425503 0.480085 0.000000
0.377611 0.508196 0.000000
0.336177 0.552571 0.000000
0.311360 0.629791 0.000000
0.296912 0.713357 0.000000
0.330096 0.802648 0.000000
0.402066 0.895931 0.000000
0.605193 0.944452 0.000000
1.000000 0.961477 0.000000
0.000000 0.063769 0.000000
0.253206 0.076451 0.000000
0.428056 0.101189 0.000000
0.499615 0.147600 0.000000
0.554247 0.203336 0.000000
0.564245 0.254188 0.000000
0.561301 0.309887 0.000000
0.529449 0.342576 0.000000
0.491797 0.377613 0.000000
0.444681 0.406075 0.000000
0.394764 0.439010 0.000000
0.342565 0.470624 0.000000
0.303919 0.530218 0.000000
0.274933 0.602520 0.000000
0.267511 0.697385 0.000000
0.287708 0.792539 0.000000
0.366164 0.892524 0.000000
0.563867 0.950430 0.000000
1.000000 0.967206 0.000000
0.000000 0.076313 0.000000
0.202970 0.086646 0.000000
0.356686 0.106889 0.000000
0.437124 0.147296 0.000000
0.489704 0.196309 0.000000
0.497649 0.239981 0.000000
0.495204 0.279408 0.000000
0.469807 0.303990 0.000000
0.447470 0.336230 0.000000
0.406675 0.363459 0.000000
0.366864 0.401040 0.000000
0.309934 0.438722 0.000000
0.279369 0.504723 0.000000
0.238218 0.585200 0.000000
0.241745 0.686040 0.000000
0.252138 0.789717 0.000000
0.335275 0.891466 0.000000
0.526195 0.956041 0.000000
1.000000 0.971857 0.000000
0.000000 0.091287 0.000000
0.158434 0.102063 0.000000
0.274925 0.117284 0.000000
0.342234 0.143650 0.000000
0.387481 0.171706 0.000000
0.408166 0.202673 0.000000
0.414681 0.238185 0.000000
0.397501 0.274931 0.000000
0.370259 0.311327 0.000000
0.335037 0.347848 0.000000
0.296054 0.387489 0.000000
0.254174 0.435711 0.000000
0.239932 0.502336 0.000000
0.202718 0.591771 0.000000
0.212623 0.693880 0.000000
0.223803 0.796680 0.000000
0.308635 0.896826 0.000000
0.501231 0.962667 0.000000
1.000000 0.976156 0.000000
0.000000 0.112968 0.000000
0.080937 0.122327 0.000000
0.163886 0.130492 0.000000
0.234236 0.149727 0.000000
0.286607 0.180340 0.000000
0.306097 0.212568 0.000000
0.313979 0.241780 0.000000
0.302587 0.267517 0.000000
0.286644 0.296904 0.000000
0.264555 0.333784 0.000000
0.236073 0.379981 0.000000
0.203315 0.445754 0.000000
0.196293 0.510293 0.000000
0.171724 0.612526 0.000000
0.180326 0.713463 0.000000
0.206525 0.816643 0.000000
0.285883 0.910438 0.000000
0.482762 0.969626 0.000000
1.000000 0.980329 0.000000
0.000000 0.151470 0.000000
0.073625 0.169879 0.000000
0.119976 0.187981 0.000000
0.155421 0.195896 0.000000
0.183392 0.206540 0.000000
0.203312 0.223854 0.000000
0.210282 0.252163 0.000000
0.207454 0.287704 0.000000
0.197419 0.330041 0.000000
0.178991 0.379776 0.000000
0.162988 0.433109 0.000000
0.147525 0.500496 0.000000
0.147298 0.562909 0.000000
0.143673 0.657799 0.000000
0.149703 0.765635 0.000000
0.195889 0.844611 0.000000
0.259577 0.927109 0.000000
0.478309 0.977584 0.000000
1.000000 0.985151 0.000000
0.000000 0.189356 0.000000
0.031861 0.206625 0.000000
0.053455 0.232376 0.000000
0.072884 0.259650 0.000000
0.089635 0.285816 0.000000
0.103161 0.308639 0.000000
0.108582 0.335249 0.000000
0.107483 0.366169 0.000000
0.104152 0.402009 0.000000
0.100852 0.447611 0.000000
0.099989 0.502738 0.000000
0.101059 0.572034 0.000000
0.106896 0.643066 0.000000
0.117208 0.725028 0.000000
0.130548 0.836053 0.000000
0.187957 0.880020 0.000000
0.232410 0.946645 0.000000
0.479961 0.985448 0.000000
1.000000 0.990312 0.000000
0.000000 0.500404 0.000000
0.006859 0.495623 0.000000
0.014566 0.479680 0.000000
0.022400 0.478522 0.000000
0.030379 0.482621 0.000000
0.037344 0.501063 0.000000
0.043987 0.525909 0.000000
0.049587 0.563646 0.000000
0.055574 0.604902 0.000000
0.061880 0.646935 0.000000
0.068392 0.696427 0.000000
0.076368 0.746854 0.000000
0.086651 0.796788 0.000000
0.102080 0.841450 0.000000
0.122336 0.919116 0.000000
0.169891 0.926367 0.000000
0.206579 0.968164 0.000000
0.495754 0.993142 0.000000
1.000000 0.995501 0.000000
0.000000 1.000000 0.000000
0.004506 1.000000 0.000000
0.009698 1.000000 0.000000
0.014834 1.000000 0.000000
0.019640 1.000000 0.000000
0.023790 1.000000 0.000000
0.028090 1.000000 0.000000
0.032727 1.000000 0.000000
0.038447 1.000000 0.000000
0.045181 1.000000 0.000000
0.053310 1.000000 0.000000
0.063762 1.000000 0.000000
0.076438 1.000000 0.000000
0.091428 1.000000 0.000000
0.112761 1.000000 0.000000
0.151483 1.000000 0.000000
0.189162 1.000000 0.000000
0.500400 1.000000 0.000000
1.000000 1.000000 0.000000
0.000000 0.000000 0.055234
0.499993 0.000000 0.055040
0.810030 0.000000 0.054997
0.848268 0.000000 0.055019
0.887082 0.000000 0.054982
[...]
POINT_DATA 2527 
VECTORS pos float 
0.000000 0.000000 0.000000
0.500025 0.000000 0.000000
0.810982 0.000000 0.000000
0.848646 0.000000 0.000000
0.886977 0.000000 0.000000
0.908656 0.000000 0.000000
0.923622 0.000000 0.000000
0.936186 0.000000 0.000000
0.946514 0.000000 0.000000
0.954751 0.000000 0.000000
0.961561 0.000000 0.000000
0.967241 0.000000 0.000000
0.971828 0.000000 0.000000
0.976032 0.000000 0.000000
0.980225 0.000000 0.000000
0.985087 0.000000 0.000000
0.990320 0.000000 0.000000
0.995521 0.000000 0.000000
1.000000 0.000000 0.000000
0.000000 0.004481 0.000000
0.503676 0.006832 0.000000
0.793360 0.031824 0.000000
0.830106 0.073486 0.000000
0.877559 0.080962 0.000000
0.897908 0.158183 0.000000
0.913268 0.203151 0.000000
0.923524 0.253117 0.000000
0.931496 0.303321 0.000000
0.938064 0.352488 0.000000
0.944404 0.394737 0.000000
0.950367 0.436426 0.000000
0.955996 0.473891 0.000000
0.962644 0.498641 0.000000
0.969630 0.516712 0.000000
0.977614 0.521218 0.000000
0.985457 0.519977 0.000000
0.993176 0.503629 0.000000
1.000000 0.499447 0.000000
0.000000 0.009621 0.000000
0.519348 0.014564 0.000000
0.767697 0.053538 0.000000
0.812149 0.119960 0.000000
0.869533 0.163877 0.000000
0.882720 0.274799 0.000000
0.892937 0.356776 0.000000
0.898788 0.427885 0.000000
0.900030 0.496854 0.000000
0.899240 0.552157 0.000000
0.895824 0.597954 0.000000
0.892416 0.633815 0.000000
0.891419 0.664667 0.000000
0.896674 0.691369 0.000000
0.910311 0.714203 0.000000
0.926949 0.740489 0.000000
0.946549 0.767531 0.000000
0.968210 0.793572 0.000000
1.000000 0.811407 0.000000
0.000000 0.014866 0.000000
0.521596 0.022410 0.000000
0.740606 0.073196 0.000000
0.804235 0.155466 0.000000
0.850350 0.234398 0.000000
0.856331 0.341982 0.000000
0.852520 0.437142 0.000000
0.852390 0.499605 0.000000
0.837067 0.566942 0.000000
0.821161 0.620097 0.000000
0.802491 0.669958 0.000000
0.792467 0.712302 0.000000
0.789677 0.747792 0.000000
0.796623 0.776151 0.000000
0.816549 0.793378 0.000000
0.844537 0.804196 0.000000
0.880133 0.812129 0.000000
0.926496 0.830026 0.000000
1.000000 0.848761 0.000000
0.000000 0.019715 0.000000
0.516841 0.030373 0.000000
0.714071 0.089792 0.000000
0.793498 0.183438 0.000000
0.819765 0.286567 0.000000
0.828276 0.387520 0.000000
0.803651 0.489687 0.000000
0.796728 0.554253 0.000000
0.763964 0.619926 0.000000
0.735523 0.666153 0.000000
0.713311 0.703095 0.000000
0.697292 0.732503 0.000000
0.685963 0.758314 0.000000
0.693751 0.787496 0.000000
0.713382 0.819846 0.000000
0.765771 0.850293 0.000000
0.836053 0.869514 0.000000
0.919104 0.877837 0.000000
1.000000 0.887519 0.000000
0.000000 0.023931 0.000000
0.498440 0.037339 0.000000
0.691265 0.103323 0.000000
0.776099 0.203283 0.000000
0.787538 0.306135 0.000000
0.797273 0.408173 0.000000
0.760001 0.497642 0.000000
0.745859 0.564295 0.000000
0.703933 0.612518 0.000000
0.664936 0.652129 0.000000
0.629735 0.688658 0.000000
0.602527 0.725079 0.000000
0.585402 0.761769 0.000000
0.591817 0.797255 0.000000
0.612524 0.828225 0.000000
0.657917 0.856362 0.000000
0.725140 0.882757 0.000000
0.841437 0.897809 0.000000
1.000000 0.908495 0.000000
0.000000 0.028151 0.000000
0.473847 0.044006 0.000000
0.664562 0.108608 0.000000
0.747826 0.210347 0.000000
0.758274 0.314105 0.000000
0.761810 0.414555 0.000000
0.720626 0.495256 0.000000
0.690091 0.561356 0.000000
0.633180 0.598879 0.000000
0.593318 0.636559 0.000000
0.552508 0.663788 0.000000
0.530147 0.696081 0.000000
0.504680 0.720677 0.000000
0.502320 0.760107 0.000000
0.510321 0.803771 0.000000
0.562982 0.852622 0.000000
0.643076 0.893040 0.000000
0.797070 0.913119 0.000000
1.000000 0.923254 0.000000
0.000000 0.032722 0.000000
0.436222 0.049630 0.000000
0.633699 0.107557 0.000000
0.712371 0.207566 0.000000
0.732459 0.302723 0.000000
0.725086 0.397443 0.000000
0.696055 0.469828 0.000000
0.657432 0.529425 0.000000
0.605242 0.560942 0.000000
0.555333 0.593961 0.000000
0.508198 0.622366 0.000000
0.470589 0.657406 0.000000
0.438693 0.690035 0.000000
0.435682 0.745845 0.000000
0.445717 0.796716 0.000000
0.500530 0.852499 0.000000
0.571991 0.898911 0.000000
0.746823 0.923496 0.000000
1.000000 0.936002 0.000000
0.000000 0.038430 0.000000
0.394564 0.055576 0.000000
0.597886 0.104147 0.000000
0.669982 0.197459 0.000000
0.703071 0.286656 0.000000
0.688647 0.370227 0.000000
0.663845 0.447454 0.000000
0.622412 0.491781 0.000000
0.574474 0.519915 0.000000
0.526040 0.548707 0.000000
0.480080 0.574513 0.000000
0.439006 0.605249 0.000000
0.401053 0.633174 0.000000
0.387530 0.704018 0.000000
0.379980 0.763942 0.000000
0.433068 0.837035 0.000000
0.502715 0.900004 0.000000
0.696496 0.931554 0.000000
1.000000 0.946519 0.000000
0.000000 0.045258 0.000000
0.352632 0.061940 0.000000
0.552180 0.100793 0.000000
0.620171 0.178847 0.000000
0.666169 0.264535 0.000000
0.652121 0.335085 0.000000
0.636560 0.406727 0.000000
0.593902 0.444706 0.000000
0.548678 0.473958 0.000000
0.499985 0.500025 0.000000
0.451261 0.526055 0.000000
0.406048 0.555307 0.000000
0.363480 0.593299 0.000000
0.347900 0.664926 0.000000
0.333804 0.735454 0.000000
0.379804 0.821080 0.000000
0.447601 0.899180 0.000000
0.647078 0.938108 0.000000
1.000000 0.954705 0.000000
0.000000 0.053458 0.000000
0.303614 0.068520 0.000000
0.497116 0.100039 0.000000
0.566990 0.162982 0.000000
0.619925 0.235938 0.000000
0.612522 0.296005 0.000000
0.598936 0.366857 0.000000
0.560995 0.394751 0.000000
0.519875 0.425491 0.000000
0.473982 0.451313 0.000000
0.425503 0.480085 0.000000
0.377611 0.508196 0.000000
0.336177 0.552571 0.000000
0.311360 0.629791 0.000000
0.296912 0.713357 0.000000
0.330096 0.802648 0.000000
0.402066 0.895931 0.000000
0.605193 0.944452 0.000000
1.000000 0.961477 0.000000
0.000000 0.063769 0.000000
0.253206 0.076451 0.000000
0.428056 0.101189 0.000000
0.499615 0.147600 0.000000
0.554247 0.203336 0.000000
0.564245 0.254188 0.000000
0.561301 0.309887 0.000000
0.529449 0.342576 0.000000
0.491797 0.377613 0.000000
0.444681 0.406075 0.000000
0.394764 0.439010 0.000000
0.342565 0.470624 0.000000
0.303919 0.530218 0.000000
0.274933 0.602520 0.000000
0.267511 0.697385 0.000000
0.287708 0.792539 0.000000
0.366164 0.892524 0.000000
0.563867 0.950430 0.000000
1.000000 0.967206 0.000000
0.000000 0.076313 0.000000
0.202970 0.086646 0.000000
0.356686 0.106889 0.000000
0.437124 0.147296 0.000000
0.489704 0.196309 0.000000
0.497649 0.239981 0.000000
0.495204 0.279408 0.000000
0.469807 0.303990 0.000000
0.447470 0.336230 0.000000
0.406675 0.363459 0.000000
0.366864 0.401040 0.000000
0.309934 0.438722 0.000000
0.279369 0.504723 0.000000
0.238218 0.585200 0.000000
0.241745 0.686040 0.000000
0.252138 0.789717 0.000000
0.335275 0.891466 0.000000
0.526195 0.956041 0.000000
1.000000 0.971857 0.000000
0.000000 0.091287 0.000000
0.158434 0.102063 0.000000
0.274925 0.117284 0.000000
0.342234 0.143650 0.000000
0.387481 0.171706 0.000000
0.408166 0.202673 0.000000
0.414681 0.238185 0.000000
0.397501 0.274931 0.000000
0.370259 0.311327 0.000000
0.335037 0.347848 0.000000
0.296054 0.387489 0.000000
0.254174 0.435711 0.000000
0.239932 0.502336 0.000000
0.202718 0.591771 0.000000
0.212623 0.693880 0.000000
0.223803 0.796680 0.000000
0.308635 0.896826 0.000000
0.501231 0.962667 0.000000
1.000000 0.976156 0.000000
0.000000 0.112968 0.000000
0.080937 0.122327 0.000000
0.163886 0.130492 0.000000
0.234236 0.149727 0.000000
0.286607 0.180340 0.000000
0.306097 0.212568 0.000000
0.313979 0.241780 0.000000
0.302587 0.267517 0.000000
0.286644 0.296904 0.000000
0.264555 0.333784 0.000000
0.236073 0.379981 0.000000
0.203315 0.445754 0.000000
0.196293 0.510293 0.000000
0.171724 0.612526 0.000000
0.180326 0.713463 0.000000
0.206525 0.816643 0.000000
0.285883 0.910438 0.000000
0.482762 0.969626 0.000000
1.000000 0.980329 0.000000
0.000000 0.151470 0.000000
0.073625 0.169879 0.000000
0.119976 0.187981 0.000000
0.155421 0.195896 0.000000
0.183392 0.206540 0.000000
0.203312 0.223854 0.000000
0.210282 0.252163 0.000000
0.207454 0.287704 0.000000
0.197419 0.330041 0.000000
0.178991 0.379776 0.000000
0.162988 0.433109 0.000000
0.147525 0.500496 0.000000
0.147298 0.562909 0.000000
0.143673 0.657799 0.000000
0.149703 0.765635 0.000000
0.195889 0.844611 0.000000
0.259577 0.927109 0.000000
0.478309 0.977584 0.000000
1.000000 0.985151 0.000000
0.000000 0.189356 0.000000
0.031861 0.206625 0.000000
0.053455 0.232376 0.000000
0.072884 0.259650 0.000000
0.089635 0.285816 0.000000
0.103161 0.308639 0.000000
0.108582 0.335249 0.000000
0.107483 0.366169 0.000000
0.104152 0.402009 0.000000
0.100852 0.447611 0.000000
0.099989 0.502738 0.000000
0.101059 0.572034 0.000000
0.106896 0.643066 0.000000
0.117208 0.725028 0.000000
0.130548 0.836053 0.000000
0.187957 0.880020 0.000000
0.232410 0.946645 0.000000
0.479961 0.985448 0.000000
1.000000 0.990312 0.000000
0.000000 0.500404 0.000000
0.006859 0.495623 0.000000
0.014566 0.479680 0.000000
0.022400 0.478522 0.000000
0.030379 0.482621 0.000000
0.037344 0.501063 0.000000
0.043987 0.525909 0.000000
0.049587 0.563646 0.000000
0.055574 0.604902 0.000000
0.061880 0.646935 0.000000
0.068392 0.696427 0.000000
0.076368 0.746854 0.000000
0.086651 0.796788 0.000000
0.102080 0.841450 0.000000
0.122336 0.919116 0.000000
0.169891 0.926367 0.000000
0.206579 0.968164 0.000000
0.495754 0.993142 0.000000
1.000000 0.995501 0.000000
0.000000 1.000000 0.000000
0.004506 1.000000 0.000000
0.009698 1.000000 0.000000
0.014834 1.000000 0.000000
0.019640 1.000000 0.000000
0.023790 1.000000 0.000000
0.028090 1.000000 0.000000
0.032727 1.000000 0.000000
0.038447 1.000000 0.000000
0.045181 1.000000 0.000000
0.053310 1.000000 0.000000
0.063762 1.000000 0.000000
0.076438 1.000000 0.000000
0.091428 1.000000 0.000000
0.112761 1.000000 0.000000
0.151483 1.000000 0.000000
0.189162 1.000000 0.000000
0.500400 1.000000 0.000000
1.000000 1.000000 0.000000
0.000000 0.000000 0.055234
0.499993 0.000000 0.055040
0.810030 0.000000 0.054997
0.848268 0.000000 0.055019
0.887082 0.000000 0.054982
0.908761 0.000000 0.054833
0.923915 0.000000 0.055077
0.936461 0.000000 0.055068
0.946739 0.000000 0.055121
0.954906 0.000000 0.055177
0.961643 0.000000 0.055071
0.967327 0.000000 0.054921
0.971912 0.000000 0.054883
0.976172 0.000000 0.054842
0.980357 0.000000 0.054954
0.985183 0.000000 0.054900
0.990394 0.000000 0.055003
0.995508 0.000000 0.055059
1.000000 0.000000 0.055093
0.000000 0.004487 0.055199
0.504469 0.006863 0.055088
0.793046 0.031930 0.055008
0.830047 0.073541 0.054951
0.877688 0.080944 0.055079
0.898020 0.158317 0.054867
0.913445 0.202934 0.055062
0.923619 0.253467 0.055091
0.931573 0.303676 0.055015
0.938124 0.353043 0.054981
0.944461 0.394996 0.055010
0.950440 0.436210 0.054961
0.955988 0.474354 0.054953
0.962616 0.499120 0.054994
0.969561 0.517527 0.055008
0.977570 0.521053 0.054996
0.985392 0.519625 0.055071
0.993140 0.504664 0.055085
1.000000 0.500318 0.055064
0.000000 0.009624 0.055052
0.519984 0.014600 0.055076
0.767536 0.053540 0.054999
0.812125 0.119959 0.055014
0.869478 0.163921 0.054999
0.882808 0.274888 0.055030
0.893094 0.356750 0.054960
0.898805 0.428107 0.054959
0.899964 0.497266 0.054957
0.899163 0.552241 0.054959
0.895906 0.597812 0.055007
0.892555 0.633633 0.054980
0.891342 0.664633 0.055031
0.896634 0.691303 0.055011
0.910054 0.714207 0.055026
0.926846 0.740523 0.055047
0.946500 0.767457 0.055045
0.968070 0.792955 0.054994
1.000000 0.809928 0.055028
0.000000 0.014816 0.054912
0.521386 0.022436 0.054996
0.740526 0.073154 0.054982
0.804163 0.155456 0.054948
0.850306 0.234321 0.055026
0.856355 0.342133 0.055029
0.852637 0.437066 0.054975
0.852425 0.499586 0.054993
0.837021 0.566930 0.054989
0.821074 0.620217 0.055038
0.802616 0.669939 0.055003
0.792510 0.712306 0.055010
0.789671 0.747879 0.055011
0.796708 0.776192 0.054959
0.816602 0.793492 0.054968
0.844526 0.804178 0.054925
0.880036 0.812126 0.054945
0.926461 0.830055 0.054953
1.000000 0.848287 0.055035
0.000000 0.019663 0.054911
0.517331 0.030418 0.054973
0.714173 0.089893 0.055011
0.793468 0.183401 0.054980
0.819744 0.286680 0.054972
0.828244 0.387431 0.055021
0.803725 0.489675 0.054985
0.796708 0.554290 0.054996
0.763974 0.620018 0.054997
0.735494 0.666146 0.055026
0.713314 0.703052 0.054985
0.697443 0.732465 0.055013
0.685974 0.758208 0.055001
0.693925 0.787428 0.055026
0.713276 0.819735 0.054993
0.765694 0.850344 0.055033
0.836146 0.869464 0.055032
0.919024 0.877605 0.054951
1.000000 0.886860 0.054926
0.000000 0.023855 0.054834
0.499106 0.037382 0.054952
0.691288 0.103370 0.055018
0.776181 0.203301 0.054971
0.787418 0.306155 0.055015
0.797284 0.408162 0.055018
0.760048 0.497709 0.054956
0.745848 0.564332 0.055013
0.703959 0.612516 0.055014
0.664884 0.652149 0.054975
0.629753 0.688714 0.054996
0.602470 0.725067 0.055012
0.585373 0.761830 0.055008
0.591829 0.797278 0.054989
0.612586 0.828247 0.054990
0.657831 0.856341 0.054974
0.725116 0.882810 0.054998
0.841746 0.898084 0.055018
1.000000 0.908858 0.055287
0.000000 0.028104 0.054863
0.474129 0.044003 0.054923
0.664626 0.108626 0.055052
0.747873 0.210353 0.055018
0.758214 0.314023 0.054987
0.761815 0.414629 0.055004
0.720650 0.495217 0.054991
0.690130 0.561288 0.055002
0.633170 0.598892 0.054992
0.593354 0.636555 0.055008
0.552549 0.663789 0.055009
0.530143 0.695996 0.054983
0.504802 0.720625 0.055014
0.502309 0.760059 0.054963
0.510277 0.803708 0.055006
0.562911 0.852628 0.055004
0.643321 0.893095 0.054998
0.796944 0.913566 0.054973
1.000000 0.924094 0.054911
0.000000 0.032692 0.054917
0.436188 0.049569 0.054956
0.633668 0.107458 0.055015
0.712295 0.207470 0.055023
0.732465 0.302537 0.054988
0.725062 0.397512 0.054999
0.696035 0.469856 0.055002
0.657438 0.529385 0.054991
0.605252 0.560961 0.055000
0.555318 0.593951 0.055008
0.508219 0.622345 0.055008
0.470606 0.657415 0.055005
0.438722 0.690138 0.054994
0.435698 0.745837 0.055003
0.445712 0.796712 0.054984
0.500432 0.852447 0.054958
0.571914 0.898787 0.054984
0.746545 0.923665 0.054972
1.000000 0.936592 0.054919
0.000000 0.038391 0.055019
0.394811 0.055532 0.055011
0.597814 0.104078 0.055028
0.669933 0.197402 0.055013
0.703042 0.286648 0.055040
0.688717 0.370216 0.055031
0.663806 0.447453 0.055014
0.622361 0.491788 0.054983
0.574490 0.519917 0.054997
0.526048 0.548693 0.054998
0.480090 0.574491 0.054995
0.439050 0.605261 0.054999
0.401118 0.633188 0.055012
0.387480 0.703964 0.055017
0.380021 0.763960 0.055027
0.433046 0.837020 0.054983
0.502720 0.899926 0.054982
0.696285 0.931562 0.055002
1.000000 0.946787 0.054935
0.000000 0.045140 0.055090
0.352982 0.061888 0.054988
0.552207 0.100800 0.055021
0.620224 0.178893 0.055006
0.666127 0.264548 0.055014
0.652136 0.335139 0.054992
0.636543 0.406679 0.055027
0.593947 0.444695 0.054999
0.548703 0.473952 0.055010
0.499993 0.500013 0.055019
0.451284 0.526050 0.055008
0.406049 0.555323 0.055004
0.363455 0.593351 0.054997
0.347869 0.664925 0.054985
0.333838 0.735512 0.055019
0.379808 0.821112 0.054995
0.447750 0.899150 0.055042
0.647212 0.938104 0.055015
1.000000 0.954931 0.055039
0.000000 0.053292 0.055048
0.303797 0.068458 0.055011
0.497258 0.100057 0.055024
0.566954 0.162972 0.054979
0.620008 0.235996 0.054997
0.612510 0.296011 0.054956
0.598907 0.366834 0.055008
0.560957 0.394738 0.054991
0.519901 0.425514 0.054980
0.473959 0.451298 0.055015
0.425514 0.480094 0.054989
0.377624 0.508199 0.055005
0.336232 0.552509 0.055001
0.311314 0.629720 0.054992
0.296940 0.713285 0.054987
0.330070 0.802627 0.054998
0.402211 0.895908 0.055015
0.605363 0.944444 0.054997
1.000000 0.961709 0.055003
0.000000 0.063630 0.055018
0.253445 0.076421 0.055076
0.428108 0.101193 0.055037
0.499599 0.147599 0.055009
0.554280 0.203301 0.054986
0.564319 0.254146 0.055002
0.561294 0.309863 0.054998
0.529436 0.342576 0.055003
0.491788 0.377637 0.054991
0.444674 0.406045 0.054997
0.394754 0.439052 0.054984
0.342557 0.470569 0.054990
0.304003 0.530200 0.055020
0.274905 0.602519 0.055001
0.267531 0.697385 0.055006
0.287725 0.792551 0.054982
0.366286 0.892460 0.055017
0.563809 0.950391 0.055005
1.000000 0.967395 0.055038
0.000000 0.076230 0.055037
0.202810 0.086650 0.055079
0.356672 0.106924 0.055044
0.437019 0.147338 0.055005
0.489694 0.196317 0.055002
0.497678 0.239990 0.055013
0.495163 0.279375 0.054968
0.469843 0.304027 0.055025
0.447469 0.336217 0.055008
0.406628 0.363448 0.055008
0.366829 0.401106 0.055009
0.309836 0.438719 0.054968
0.279389 0.504813 0.055038
0.238173 0.585338 0.055006
0.241764 0.686023 0.054990
0.252115 0.789652 0.055005
0.335341 0.891316 0.055011
0.526058 0.955970 0.055032
1.000000 0.971979 0.055014
0.000000 0.091235 0.054981
0.158538 0.102043 0.054935
0.274910 0.117281 0.054931
0.342151 0.143681 0.054946
0.387458 0.171744 0.054966
0.408180 0.202708 0.054979
0.414568 0.238161 0.054981
0.397499 0.274899 0.054992
0.370279 0.311294 0.054990
0.335105 0.347861 0.055006
0.296041 0.387486 0.054966
0.254137 0.435689 0.054989
0.239954 0.502308 0.055032
0.202714 0.591830 0.054964
0.212592 0.693825 0.055020
0.223760 0.796689 0.055002
0.308660 0.896542 0.054983
0.501035 0.962579 0.055038
1.000000 0.976225 0.055034
0.000000 0.112766 0.054966
0.080974 0.122273 0.055039
0.163858 0.130536 0.055031
0.234236 0.149727 0.054995
0.286667 0.180265 0.055001
0.306170 0.212578 0.055018
0.313991 0.241767 0.055023
0.302586 0.267535 0.055006
0.286688 0.296928 0.055020
0.264516 0.333811 0.055049
0.236050 0.379984 0.054989
0.203287 0.445710 0.055004
0.196306 0.510309 0.054993
0.171736 0.612566 0.054996
0.180235 0.713338 0.054984
0.206526 0.816638 0.055011
0.285723 0.910068 0.055016
0.482770 0.969534 0.055041
1.000000 0.980410 0.055016
0.000000 0.151513 0.055014
0.073538 0.169911 0.054937
0.119891 0.187881 0.054949
0.155434 0.195795 0.055005
0.183384 0.206532 0.054977
0.203285 0.223809 0.055011
0.210300 0.252142 0.055001
0.207448 0.287708 0.055010
0.197384 0.330068 0.055013
0.178881 0.379824 0.054997
0.162992 0.433057 0.054988
0.147599 0.500428 0.054994
0.147344 0.562979 0.055044
0.143674 0.657831 0.054907
0.149701 0.765759 0.055008
0.195750 0.844550 0.054990
0.259466 0.926909 0.055079
0.478924 0.977545 0.054996
1.000000 0.985206 0.055044
0.000000 0.189473 0.054975
0.031879 0.206781 0.054996
0.053445 0.232413 0.055101
0.073112 0.259392 0.055059
0.089878 0.285738 0.055044
0.103410 0.308668 0.054993
0.108663 0.335359 0.055049
0.107523 0.366305 0.055009
0.104123 0.402160 0.054997
0.100862 0.447699 0.055039
0.100074 0.502744 0.054989
0.101211 0.571860 0.054990
0.106931 0.643307 0.055045
0.117231 0.725114 0.054886
0.130480 0.835992 0.055061
0.187893 0.880138 0.054930
0.232473 0.946539 0.055091
0.480158 0.985380 0.054981
1.000000 0.990353 0.055100
0.000000 0.499997 0.054980
0.006848 0.495902 0.054965
0.014615 0.480422 0.055018
0.022463 0.478776 0.055027
0.030465 0.482791 0.055040
0.037415 0.501084 0.055042
0.044035 0.525937 0.055028
0.049608 0.563758 0.054973
0.055563 0.605266 0.054975
0.061917 0.647092 0.055064
0.068468 0.696241 0.055010
0.076408 0.746560 0.055025
0.086598 0.797108 0.055062
0.102001 0.841647 0.054914
0.122290 0.919000 0.054994
0.169930 0.926428 0.054972
0.206784 0.968107 0.054959
0.495811 0.993147 0.054978
1.000000 0.995479 0.054984
0.000000 1.000000 0.054868
0.004517 1.000000 0.054922
0.009652 1.000000 0.055056
0.014826 1.000000 0.055108
0.019624 1.000000 0.055109
0.023823 1.000000 0.055050
0.028069 1.000000 0.054916
0.032660 1.000000 0.054969
0.038366 1.000000 0.054982
0.045165 1.000000 0.055011
0.053355 1.000000 0.054908
0.063595 1.000000 0.054894
0.076139 1.000000 0.054904
0.091255 1.000000 0.055185
0.112923 1.000000 0.054924
0.151502 1.000000 0.055101
0.189546 1.000000 0.054951
0.499996 1.000000 0.054991
1.000000 1.000000 0.054912
0.000000 0.000000 0.109958
0.499705 0.000000 0.109988
0.810894 0.000000 0.110079
0.848601 0.000000 0.109633
0.887261 0.000000 0.110068
0.908608 0.000000 0.109767
0.923547 0.000000 0.110106
0.936219 0.000000 0.110132
0.946568 0.000000 0.110029
0.954809 0.000000 0.109950
0.961607 0.000000 0.110075
0.967302 0.000000 0.110015
0.971882 0.000000 0.109979
0.976119 0.000000 0.110034
0.980302 0.000000 0.110032
0.985142 0.000000 0.110051
0.990317 0.000000 0.110040