# vtk DataFile Version 2.0
Mesh for Fierro
ASCII 
DATASET UNSTRUCTURED_GRID

POINTS 2527 float
0.000000 0.000000 0.000000
0.289999 0.000000 0.000000
0.506506 0.000000 0.000000
0.632648 0.000000 0.000000
0.719852 0.000000 0.000000
0.773860 0.000000 0.000000
0.813546 0.000000 0.000000
0.842911 0.000000 0.000000
0.868236 0.000000 0.000000
0.888386 0.000000 0.000000
0.905305 0.000000 0.000000
0.920759 0.000000 0.000000
0.933826 0.000000 0.000000
0.945812 0.000000 0.000000
0.957015 0.000000 0.000000
0.968135 0.000000 0.000000
0.978727 0.000000 0.000000
0.989696 0.000000 0.000000
1.000000 0.000000 0.000000
0.000000 0.010310 0.000000
0.288433 0.011206 0.000000
0.502941 0.019462 0.000000
0.628280 0.029583 0.000000
0.713643 0.044832 0.000000
0.767972 0.063515 0.000000
0.807592 0.086714 0.000000
0.837951 0.108871 0.000000
0.862823 0.133261 0.000000
0.883241 0.159436 0.000000
0.900660 0.182381 0.000000
0.915940 0.206480 0.000000
0.929452 0.229401 0.000000
0.942208 0.247247 0.000000
0.954104 0.261906 0.000000
0.965822 0.273943 0.000000
0.977289 0.281319 0.000000
0.988794 0.288446 0.000000
1.000000 0.289893 0.000000
0.000000 0.021299 0.000000
0.281302 0.022730 0.000000
0.493484 0.038140 0.000000
0.618925 0.058079 0.000000
0.702984 0.086747 0.000000
0.756783 0.121576 0.000000
0.793739 0.163494 0.000000
0.822902 0.203321 0.000000
0.845763 0.246517 0.000000
0.862938 0.289257 0.000000
0.877298 0.330296 0.000000
0.889637 0.368552 0.000000
0.901111 0.404339 0.000000
0.914320 0.433644 0.000000
0.928295 0.459178 0.000000
0.944320 0.479505 0.000000
0.961849 0.493454 0.000000
0.980531 0.502939 0.000000
1.000000 0.506564 0.000000
0.000000 0.031880 0.000000
0.273924 0.034169 0.000000
0.479498 0.055659 0.000000
0.603969 0.084328 0.000000
0.684086 0.123488 0.000000
0.734739 0.169801 0.000000
0.768273 0.224130 0.000000
0.794466 0.275023 0.000000
0.810703 0.331567 0.000000
0.823570 0.382747 0.000000
0.833218 0.433131 0.000000
0.844658 0.478693 0.000000
0.855961 0.521894 0.000000
0.872758 0.554868 0.000000
0.892043 0.583056 0.000000
0.915666 0.603988 0.000000
0.941926 0.618920 0.000000
0.970416 0.628279 0.000000
1.000000 0.632622 0.000000
0.000000 0.042975 0.000000
0.261977 0.045884 0.000000
0.459244 0.071703 0.000000
0.583054 0.107967 0.000000
0.660533 0.155904 0.000000
0.708410 0.211543 0.000000
0.737939 0.274808 0.000000
0.760597 0.333223 0.000000
0.768963 0.397165 0.000000
0.777261 0.452895 0.000000
0.783448 0.505192 0.000000
0.793012 0.550812 0.000000
0.801180 0.594759 0.000000
0.820522 0.629592 0.000000
0.844085 0.660536 0.000000
0.876511 0.684081 0.000000
0.913258 0.702981 0.000000
0.955164 0.713645 0.000000
1.000000 0.719861 0.000000
0.000000 0.054256 0.000000
0.247258 0.057788 0.000000
0.433645 0.085683 0.000000
0.554848 0.127232 0.000000
0.629592 0.179480 0.000000
0.673467 0.239797 0.000000
0.700163 0.306532 0.000000
0.718098 0.368891 0.000000
0.719067 0.433034 0.000000
0.723287 0.490371 0.000000
0.723695 0.544175 0.000000
0.731166 0.590686 0.000000
0.737414 0.635502 0.000000
0.760195 0.673464 0.000000
0.788461 0.708403 0.000000
0.830220 0.734741 0.000000
0.878424 0.756782 0.000000
0.936477 0.767989 0.000000
1.000000 0.773871 0.000000
0.000000 0.066230 0.000000
0.229470 0.070573 0.000000
0.404373 0.098920 0.000000
0.521918 0.144040 0.000000
0.594762 0.198814 0.000000
0.635469 0.262535 0.000000
0.659413 0.330994 0.000000
0.670543 0.395568 0.000000
0.664644 0.458845 0.000000
0.664878 0.515587 0.000000
0.660046 0.568761 0.000000
0.665655 0.615245 0.000000
0.669019 0.659398 0.000000
0.693445 0.700173 0.000000
0.725232 0.737969 0.000000
0.775877 0.768260 0.000000
0.836504 0.793748 0.000000
0.913270 0.807584 0.000000
1.000000 0.813516 0.000000
0.000000 0.079162 0.000000
0.206472 0.084079 0.000000
0.368590 0.110416 0.000000
0.478730 0.155348 0.000000
0.550786 0.206994 0.000000
0.590690 0.268841 0.000000
0.615220 0.334364 0.000000
0.622057 0.396527 0.000000
0.614326 0.456411 0.000000
0.609641 0.515319 0.000000
0.602471 0.569866 0.000000
0.603461 0.622029 0.000000
0.604428 0.670538 0.000000
0.631098 0.718095 0.000000
0.666780 0.760568 0.000000
0.724966 0.794461 0.000000
0.796680 0.822868 0.000000
0.891112 0.837901 0.000000
1.000000 0.842812 0.000000
0.000000 0.094761 0.000000
0.182375 0.099352 0.000000
0.330261 0.122735 0.000000
0.433126 0.166779 0.000000
0.505194 0.216565 0.000000
0.544155 0.276287 0.000000
0.568770 0.339949 0.000000
0.569871 0.397534 0.000000
0.562648 0.453569 0.000000
0.555085 0.509075 0.000000
0.546461 0.562664 0.000000
0.543565 0.614310 0.000000
0.541129 0.664617 0.000000
0.566959 0.719082 0.000000
0.602844 0.768982 0.000000
0.668413 0.810699 0.000000
0.753479 0.845752 0.000000
0.866690 0.862914 0.000000
1.000000 0.868343 0.000000
0.000000 0.111652 0.000000
0.159448 0.116780 0.000000
0.289261 0.137006 0.000000
0.382746 0.176427 0.000000
0.452895 0.222740 0.000000
0.490352 0.276708 0.000000
0.515620 0.335117 0.000000
0.515328 0.390400 0.000000
0.509046 0.444911 0.000000
0.499998 0.500007 0.000000
0.490949 0.555103 0.000000
0.484666 0.609626 0.000000
0.484411 0.664900 0.000000
0.509646 0.723295 0.000000
0.547075 0.777273 0.000000
0.617251 0.823567 0.000000
0.710734 0.862930 0.000000
0.840458 0.883114 0.000000
1.000000 0.888139 0.000000
0.000000 0.131723 0.000000
0.133288 0.137163 0.000000
0.246490 0.154278 0.000000
0.331576 0.189288 0.000000
0.397184 0.231037 0.000000
0.433043 0.280934 0.000000
0.458887 0.335355 0.000000
0.456428 0.385665 0.000000
0.453524 0.437352 0.000000
0.444916 0.490952 0.000000
0.437333 0.546454 0.000000
0.430121 0.602492 0.000000
0.431221 0.660043 0.000000
0.455856 0.723707 0.000000
0.494800 0.783449 0.000000
0.566870 0.833226 0.000000
0.669823 0.877273 0.000000
0.817615 0.900684 0.000000
1.000000 0.905299 0.000000
0.000000 0.157096 0.000000
0.108876 0.162037 0.000000
0.203314 0.177089 0.000000
0.275028 0.205536 0.000000
0.333239 0.239397 0.000000
0.368883 0.281897 0.000000
0.395562 0.329442 0.000000
0.396536 0.377954 0.000000
0.397533 0.430132 0.000000
0.390377 0.484676 0.000000
0.385690 0.543580 0.000000
0.377961 0.603472 0.000000
0.384769 0.665656 0.000000
0.409327 0.731159 0.000000
0.449206 0.793016 0.000000
0.521225 0.844640 0.000000
0.631507 0.889596 0.000000
0.793593 0.916011 0.000000
1.000000 0.920749 0.000000
0.000000 0.186460 0.000000
0.086708 0.192391 0.000000
0.163522 0.206266 0.000000
0.224165 0.231739 0.000000
0.274803 0.262081 0.000000
0.306527 0.299871 0.000000
0.331017 0.340612 0.000000
0.334366 0.384783 0.000000
0.339960 0.431229 0.000000
0.335091 0.484405 0.000000
0.335383 0.541141 0.000000
0.329438 0.604435 0.000000
0.340608 0.668974 0.000000
0.364501 0.737426 0.000000
0.405232 0.801141 0.000000
0.478111 0.855997 0.000000
0.595754 0.901092 0.000000
0.770552 0.929429 0.000000
1.000000 0.933694 0.000000
0.000000 0.226149 0.000000
0.063549 0.232033 0.000000
0.121545 0.243208 0.000000
0.169778 0.265244 0.000000
0.211520 0.291572 0.000000
0.239807 0.326502 0.000000
0.262556 0.364510 0.000000
0.268843 0.409317 0.000000
0.276285 0.455848 0.000000
0.276714 0.509654 0.000000
0.280922 0.566953 0.000000
0.281897 0.631088 0.000000
0.299862 0.693476 0.000000
0.326509 0.760197 0.000000
0.370462 0.820522 0.000000
0.445107 0.872800 0.000000
0.566491 0.914241 0.000000
0.752785 0.942272 0.000000
1.000000 0.945656 0.000000
0.000000 0.280130 0.000000
0.044840 0.286326 0.000000
0.086761 0.297038 0.000000
0.123502 0.315917 0.000000
0.155942 0.339505 0.000000
0.179493 0.370457 0.000000
0.198866 0.405235 0.000000
0.206965 0.449215 0.000000
0.216567 0.494792 0.000000
0.222723 0.547097 0.000000
0.231032 0.602826 0.000000
0.239420 0.666784 0.000000
0.262054 0.725184 0.000000
0.291571 0.788472 0.000000
0.339498 0.844061 0.000000
0.416869 0.892058 0.000000
0.540995 0.928221 0.000000
0.738074 0.954200 0.000000
1.000000 0.956809 0.000000
0.000000 0.367319 0.000000
0.029574 0.371713 0.000000
0.058059 0.381047 0.000000
0.084304 0.395988 0.000000
0.107932 0.416885 0.000000
0.127202 0.445093 0.000000
0.143977 0.478129 0.000000
0.155360 0.521235 0.000000
0.166776 0.566868 0.000000
0.176440 0.617232 0.000000
0.189304 0.668408 0.000000
0.205540 0.724967 0.000000
0.231763 0.775848 0.000000
0.265242 0.830223 0.000000
0.315926 0.876499 0.000000
0.395985 0.915692 0.000000
0.520482 0.944274 0.000000
0.725792 0.965892 0.000000
1.000000 0.967959 0.000000
0.000000 0.493434 0.000000
0.019499 0.497007 0.000000
0.038165 0.506577 0.000000
0.055740 0.520494 0.000000
0.071803 0.540968 0.000000
0.085769 0.566488 0.000000
0.098943 0.595727 0.000000
0.110419 0.631537 0.000000
0.122759 0.669805 0.000000
0.137079 0.710728 0.000000
0.154256 0.753494 0.000000
0.177141 0.796687 0.000000
0.206245 0.836465 0.000000
0.243215 0.878457 0.000000
0.297030 0.913244 0.000000
0.381055 0.941938 0.000000
0.506581 0.961839 0.000000
0.718199 0.977385 0.000000
1.000000 0.978803 0.000000
0.000000 0.709956 0.000000
0.011202 0.711255 0.000000
0.022620 0.718146 0.000000
0.034109 0.725720 0.000000
0.045838 0.738046 0.000000
0.057714 0.752736 0.000000
0.070580 0.770389 0.000000
0.083975 0.793527 0.000000
0.099326 0.817519 0.000000
0.116887 0.840476 0.000000
0.137110 0.866660 0.000000
0.162084 0.891119 0.000000
0.192402 0.913293 0.000000
0.232013 0.936444 0.000000
0.286336 0.955163 0.000000
0.371710 0.970419 0.000000
0.496989 0.980508 0.000000
0.711314 0.988815 0.000000
1.000000 0.989458 0.000000
0.000000 1.000000 0.000000
0.010551 1.000000 0.000000
0.021232 1.000000 0.000000
0.032080 1.000000 0.000000
0.043277 1.000000 0.000000
0.054374 1.000000 0.000000
0.066324 1.000000 0.000000
0.079299 1.000000 0.000000
0.094729 1.000000 0.000000
0.111914 1.000000 0.000000
0.131680 1.000000 0.000000
0.157182 1.000000 0.000000
0.186504 1.000000 0.000000
0.226121 1.000000 0.000000
0.280142 1.000000 0.000000
0.367306 1.000000 0.000000
0.493413 1.000000 0.000000
0.710027 1.000000 0.000000
1.000000 1.000000 0.000000
0.000000 0.000000 0.055143
0.290106 0.000000 0.055000
0.506348 0.000000 0.054986
0.632689 0.000000 0.055001
0.719845 0.000000 0.054991
[...]
POINT_DATA 2527 
VECTORS pos float 
0.000000 0.000000 0.000000
0.289999 0.000000 0.000000
0.506506 0.000000 0.000000
0.632648 0.000000 0.000000
0.719852 0.000000 0.000000
0.773860 0.000000 0.000000
0.813546 0.000000 0.000000
0.842911 0.000000 0.000000
0.868236 0.000000 0.000000
0.888386 0.000000 0.000000
0.905305 0.000000 0.000000
0.920759 0.000000 0.000000
0.933826 0.000000 0.000000
0.945812 0.000000 0.000000
0.957015 0.000000 0.000000
0.968135 0.000000 0.000000
0.978727 0.000000 0.000000
0.989696 0.000000 0.000000
1.000000 0.000000 0.000000
0.000000 0.010310 0.000000
0.288433 0.011206 0.000000
0.502941 0.019462 0.000000
0.628280 0.029583 0.000000
0.713643 0.044832 0.000000
0.767972 0.063515 0.000000
0.807592 0.086714 0.000000
0.837951 0.108871 0.000000
0.862823 0.133261 0.000000
0.883241 0.159436 0.000000
0.900660 0.182381 0.000000
0.915940 0.206480 0.000000
0.929452 0.229401 0.000000
0.942208 0.247247 0.000000
0.954104 0.261906 0.000000
0.965822 0.273943 0.000000
0.977289 0.281319 0.000000
0.988794 0.288446 0.000000
1.000000 0.289893 0.000000
0.000000 0.021299 0.000000
0.281302 0.022730 0.000000
0.493484 0.038140 0.000000
0.618925 0.058079 0.000000
0.702984 0.086747 0.000000
0.756783 0.121576 0.000000
0.793739 0.163494 0.000000
0.822902 0.203321 0.000000
0.845763 0.246517 0.000000
0.862938 0.289257 0.000000
0.877298 0.330296 0.000000
0.889637 0.368552 0.000000
0.901111 0.404339 0.000000
0.914320 0.433644 0.000000
0.928295 0.459178 0.000000
0.944320 0.479505 0.000000
0.961849 0.493454 0.000000
0.980531 0.502939 0.000000
1.000000 0.506564 0.000000
0.000000 0.031880 0.000000
0.273924 0.034169 0.000000
0.479498 0.055659 0.000000
0.603969 0.084328 0.000000
0.684086 0.123488 0.000000
0.734739 0.169801 0.000000
0.768273 0.224130 0.000000
0.794466 0.275023 0.000000
0.810703 0.331567 0.000000
0.823570 0.382747 0.000000
0.833218 0.433131 0.000000
0.844658 0.478693 0.000000
0.855961 0.521894 0.000000
0.872758 0.554868 0.000000
0.892043 0.583056 0.000000
0.915666 0.603988 0.000000
0.941926 0.618920 0.000000
0.970416 0.628279 0.000000
1.000000 0.632622 0.000000
0.000000 0.042975 0.000000
0.261977 0.045884 0.000000
0.459244 0.071703 0.000000
0.583054 0.107967 0.000000
0.660533 0.155904 0.000000
0.708410 0.211543 0.000000
0.737939 0.274808 0.000000
0.760597 0.333223 0.000000
0.768963 0.397165 0.000000
0.777261 0.452895 0.000000
0.783448 0.505192 0.000000
0.793012 0.550812 0.000000
0.801180 0.594759 0.000000
0.820522 0.629592 0.000000
0.844085 0.660536 0.000000
0.876511 0.684081 0.000000
0.913258 0.702981 0.000000
0.955164 0.713645 0.000000
1.000000 0.719861 0.000000
0.000000 0.054256 0.000000
0.247258 0.057788 0.000000
0.433645 0.085683 0.000000
0.554848 0.127232 0.000000
0.629592 0.179480 0.000000
0.673467 0.239797 0.000000
0.700163 0.306532 0.000000
0.718098 0.368891 0.000000
0.719067 0.433034 0.000000
0.723287 0.490371 0.000000
0.723695 0.544175 0.000000
0.731166 0.590686 0.000000
0.737414 0.635502 0.000000
0.760195 0.673464 0.000000
0.788461 0.708403 0.000000
0.830220 0.734741 0.000000
0.878424 0.756782 0.000000
0.936477 0.767989 0.000000
1.000000 0.773871 0.000000
0.000000 0.066230 0.000000
0.229470 0.070573 0.000000
0.404373 0.098920 0.000000
0.521918 0.144040 0.000000
0.594762 0.198814 0.000000
0.635469 0.262535 0.000000
0.659413 0.330994 0.000000
0.670543 0.395568 0.000000
0.664644 0.458845 0.000000
0.664878 0.515587 0.000000
0.660046 0.568761 0.000000
0.665655 0.615245 0.000000
0.669019 0.659398 0.000000
0.693445 0.700173 0.000000
0.725232 0.737969 0.000000
0.775877 0.768260 0.000000
0.836504 0.793748 0.000000
0.913270 0.807584 0.000000
1.000000 0.813516 0.000000
0.000000 0.079162 0.000000
0.206472 0.084079 0.000000
0.368590 0.110416 0.000000
0.478730 0.155348 0.000000
0.550786 0.206994 0.000000
0.590690 0.268841 0.000000
0.615220 0.334364 0.000000
0.622057 0.396527 0.000000
0.614326 0.456411 0.000000
0.609641 0.515319 0.000000
0.602471 0.569866 0.000000
0.603461 0.622029 0.000000
0.604428 0.670538 0.000000
0.631098 0.718095 0.000000
0.666780 0.760568 0.000000
0.724966 0.794461 0.000000
0.796680 0.822868 0.000000
0.891112 0.837901 0.000000
1.000000 0.842812 0.000000
0.000000 0.094761 0.000000
0.182375 0.099352 0.000000
0.330261 0.122735 0.000000
0.433126 0.166779 0.000000
0.505194 0.216565 0.000000
0.544155 0.276287 0.000000
0.568770 0.339949 0.000000
0.569871 0.397534 0.000000
0.562648 0.453569 0.000000
0.555085 0.509075 0.000000
0.546461 0.562664 0.000000
0.543565 0.614310 0.000000
0.541129 0.664617 0.000000
0.566959 0.719082 0.000000
0.602844 0.768982 0.000000
0.668413 0.810699 0.000000
0.753479 0.845752 0.000000
0.866690 0.862914 0.000000
1.000000 0.868343 0.000000
0.000000 0.111652 0.000000
0.159448 0.116780 0.000000
0.289261 0.137006 0.000000
0.382746 0.176427 0.000000
0.452895 0.222740 0.000000
0.490352 0.276708 0.000000
0.515620 0.335117 0.000000
0.515328 0.390400 0.000000
0.509046 0.444911 0.000000
0.499998 0.500007 0.000000
0.490949 0.555103 0.000000
0.484666 0.609626 0.000000
0.484411 0.664900 0.000000
0.509646 0.723295 0.000000
0.547075 0.777273 0.000000
0.617251 0.823567 0.000000
0.710734 0.862930 0.000000
0.840458 0.883114 0.000000
1.000000 0.888139 0.000000
0.000000 0.131723 0.000000
0.133288 0.137163 0.000000
0.246490 0.154278 0.000000
0.331576 0.189288 0.000000
0.397184 0.231037 0.000000
0.433043 0.280934 0.000000
0.458887 0.335355 0.000000
0.456428 0.385665 0.000000
0.453524 0.437352 0.000000
0.444916 0.490952 0.000000
0.437333 0.546454 0.000000
0.430121 0.602492 0.000000
0.431221 0.660043 0.000000
0.455856 0.723707 0.000000
0.494800 0.783449 0.000000
0.566870 0.833226 0.000000
0.669823 0.877273 0.000000
0.817615 0.900684 0.000000
1.000000 0.905299 0.000000
0.000000 0.157096 0.000000
0.108876 0.162037 0.000000
0.203314 0.177089 0.000000
0.275028 0.205536 0.000000
0.333239 0.239397 0.000000
0.368883 0.281897 0.000000
0.395562 0.329442 0.000000
0.396536 0.377954 0.000000
0.397533 0.430132 0.000000
0.390377 0.484676 0.000000
0.385690 0.543580 0.000000
0.377961 0.603472 0.000000
0.384769 0.665656 0.000000
0.409327 0.731159 0.000000
0.449206 0.793016 0.000000
0.521225 0.844640 0.000000
0.631507 0.889596 0.000000
0.793593 0.916011 0.000000
1.000000 0.920749 0.000000
0.000000 0.186460 0.000000
0.086708 0.192391 0.000000
0.163522 0.206266 0.000000
0.224165 0.231739 0.000000
0.274803 0.262081 0.000000
0.306527 0.299871 0.000000
0.331017 0.340612 0.000000
0.334366 0.384783 0.000000
0.339960 0.431229 0.000000
0.335091 0.484405 0.000000
0.335383 0.541141 0.000000
0.329438 0.604435 0.000000
0.340608 0.668974 0.000000
0.364501 0.737426 0.000000
0.405232 0.801141 0.000000
0.478111 0.855997 0.000000
0.595754 0.901092 0.000000
0.770552 0.929429 0.000000
1.000000 0.933694 0.000000
0.000000 0.226149 0.000000
0.063549 0.232033 0.000000
0.121545 0.243208 0.000000
0.169778 0.265244 0.000000
0.211520 0.291572 0.000000
0.239807 0.326502 0.000000
0.262556 0.364510 0.000000
0.268843 0.409317 0.000000
0.276285 0.455848 0.000000
0.276714 0.509654 0.000000
0.280922 0.566953 0.000000
0.281897 0.631088 0.000000
0.299862 0.693476 0.000000
0.326509 0.760197 0.000000
0.370462 0.820522 0.000000
0.445107 0.872800 0.000000
0.566491 0.914241 0.000000
0.752785 0.942272 0.000000
1.000000 0.945656 0.000000
0.000000 0.280130 0.000000
0.044840 0.286326 0.000000
0.086761 0.297038 0.000000
0.123502 0.315917 0.000000
0.155942 0.339505 0.000000
0.179493 0.370457 0.000000
0.198866 0.405235 0.000000
0.206965 0.449215 0.000000
0.216567 0.494792 0.000000
0.222723 0.547097 0.000000
0.231032 0.602826 0.000000
0.239420 0.666784 0.000000
0.262054 0.725184 0.000000
0.291571 0.788472 0.000000
0.339498 0.844061 0.000000
0.416869 0.892058 0.000000
0.540995 0.928221 0.000000
0.738074 0.954200 0.000000
1.000000 0.956809 0.000000
0.000000 0.367319 0.000000
0.029574 0.371713 0.000000
0.058059 0.381047 0.000000
0.084304 0.395988 0.000000
0.107932 0.416885 0.000000
0.127202 0.445093 0.000000
0.143977 0.478129 0.000000
0.155360 0.521235 0.000000
0.166776 0.566868 0.000000
0.176440 0.617232 0.000000
0.189304 0.668408 0.000000
0.205540 0.724967 0.000000
0.231763 0.775848 0.000000
0.265242 0.830223 0.000000
0.315926 0.876499 0.000000
0.395985 0.915692 0.000000
0.520482 0.944274 0.000000
0.725792 0.965892 0.000000
1.000000 0.967959 0.000000
0.000000 0.493434 0.000000
0.019499 0.497007 0.000000
0.038165 0.506577 0.000000
0.055740 0.520494 0.000000
0.071803 0.540968 0.000000
0.085769 0.566488 0.000000
0.098943 0.595727 0.000000
0.110419 0.631537 0.000000
0.122759 0.669805 0.000000
0.137079 0.710728 0.000000
0.154256 0.753494 0.000000
0.177141 0.796687 0.000000
0.206245 0.836465 0.000000
0.243215 0.878457 0.000000
0.297030 0.913244 0.000000
0.381055 0.941938 0.000000
0.506581 0.961839 0.000000
0.718199 0.977385 0.000000
1.000000 0.978803 0.000000
0.000000 0.709956 0.000000
0.011202 0.711255 0.000000
0.022620 0.718146 0.000000
0.034109 0.725720 0.000000
0.045838 0.738046 0.000000
0.057714 0.752736 0.000000
0.070580 0.770389 0.000000
0.083975 0.793527 0.000000
0.099326 0.817519 0.000000
0.116887 0.840476 0.000000
0.137110 0.866660 0.000000
0.162084 0.891119 0.000000
0.192402 0.913293 0.000000
0.232013 0.936444 0.000000
0.286336 0.955163 0.000000
0.371710 0.970419 0.000000
0.496989 0.980508 0.000000
0.711314 0.988815 0.000000
1.000000 0.989458 0.000000
0.000000 1.000000 0.000000
0.010551 1.000000 0.000000
0.021232 1.000000 0.000000
0.032080 1.000000 0.000000
0.043277 1.000000 0.000000
0.054374 1.000000 0.000000
0.066324 1.000000 0.000000
0.079299 1.000000 0.000000
0.094729 1.000000 0.000000
0.111914 1.000000 0.000000
0.131680 1.000000 0.000000
0.157182 1.000000 0.000000
0.186504 1.000000 0.000000
0.226121 1.000000 0.000000
0.280142 1.000000 0.000000
0.367306 1.000000 0.000000
0.493413 1.000000 0.000000
0.710027 1.000000 0.000000
1.000000 1.000000 0.000000
0.000000 0.000000 0.055143
0.290106 0.000000 0.055000
0.506348 0.000000 0.054986
0.632689 0.000000 0.055001
0.719845 0.000000 0.054991
0.773846 0.000000 0.054999
0.813558 0.000000 0.055023
0.842878 0.000000 0.054970
0.868298 0.000000 0.055038
0.888292 0.000000 0.055015
0.905321 0.000000 0.055043
0.920830 0.000000 0.054993
0.933763 0.000000 0.054867
0.945702 0.000000 0.054952
0.956844 0.000000 0.055078
0.968090 0.000000 0.054943
0.978887 0.000000 0.055018
0.989546 0.000000 0.055061
1.000000 0.000000 0.055078
0.000000 0.010449 0.055108
0.288674 0.011217 0.055017
0.502954 0.019463 0.055002
0.628288 0.029567 0.054994
0.713654 0.044857 0.054998
0.767970 0.063511 0.054993
0.807596 0.086708 0.055002
0.837937 0.108900 0.054998
0.862881 0.133267 0.054993
0.883198 0.159520 0.054998
0.900701 0.182428 0.055019
0.916019 0.206368 0.055000
0.929461 0.229633 0.054984
0.942296 0.247418 0.055027
0.954150 0.262090 0.055002
0.965894 0.274237 0.055009
0.977376 0.281685 0.055001
0.988785 0.288710 0.055006
1.000000 0.290217 0.055018
0.000000 0.021107 0.055001
0.281654 0.022616 0.055006
0.493477 0.038131 0.054999
0.618938 0.058072 0.055005
0.702981 0.086751 0.054981
0.756796 0.121570 0.055010
0.793729 0.163502 0.054985
0.822899 0.203321 0.054996
0.845733 0.246488 0.054987
0.862961 0.289271 0.054989
0.877286 0.330195 0.055004
0.889594 0.368402 0.055005
0.901007 0.404448 0.055014
0.914240 0.433565 0.055007
0.928235 0.459081 0.055004
0.944323 0.479457 0.055008
0.961866 0.493447 0.054995
0.980532 0.502966 0.054996
1.000000 0.506338 0.054984
0.000000 0.031899 0.054919
0.274232 0.034107 0.054998
0.479462 0.055661 0.055008
0.603966 0.084322 0.054989
0.684107 0.123489 0.055005
0.734742 0.169793 0.054998
0.768272 0.224131 0.054998
0.794462 0.275028 0.054999
0.810708 0.331577 0.055000
0.823558 0.382750 0.055007
0.833230 0.433098 0.055010
0.844647 0.478738 0.054986
0.855975 0.521946 0.054990
0.872793 0.554873 0.054987
0.892071 0.583086 0.054998
0.915698 0.603963 0.054995
0.941938 0.618945 0.054998
0.970434 0.628284 0.054998
1.000000 0.632695 0.055002
0.000000 0.043132 0.055047
0.262065 0.045860 0.054981
0.459083 0.071739 0.055010
0.583069 0.107937 0.055001
0.660513 0.155906 0.055009
0.708413 0.211535 0.054989
0.737942 0.274762 0.055010
0.760580 0.333229 0.055001
0.768964 0.397180 0.054992
0.777268 0.452897 0.055006
0.783450 0.505189 0.054991
0.793015 0.550788 0.055005
0.801155 0.594745 0.054995
0.820522 0.629566 0.055016
0.844086 0.660499 0.055011
0.876506 0.684098 0.055009
0.913239 0.702982 0.054993
0.955147 0.713658 0.054995
1.000000 0.719840 0.054979
0.000000 0.054282 0.054982
0.247462 0.057710 0.055004
0.433572 0.085743 0.054994
0.554885 0.127214 0.054997
0.629561 0.179477 0.055009
0.673486 0.239804 0.054987
0.700141 0.306583 0.055005
0.718108 0.368889 0.055002
0.719065 0.433084 0.055007
0.723318 0.490355 0.055000
0.723721 0.544137 0.054996
0.731138 0.590692 0.055013
0.737503 0.635480 0.054994
0.760200 0.673489 0.054989
0.788468 0.708428 0.054988
0.830201 0.734751 0.054995
0.878436 0.756790 0.055004
0.936491 0.767969 0.054993
1.000000 0.773859 0.055005
0.000000 0.066212 0.054895
0.229570 0.070540 0.054978
0.404433 0.098974 0.055022
0.521961 0.144027 0.054999
0.594746 0.198855 0.055003
0.635497 0.262528 0.055003
0.659349 0.330968 0.055007
0.670554 0.395578 0.054998
0.664627 0.458863 0.054999
0.664892 0.515613 0.055003
0.660051 0.568775 0.054998
0.665609 0.615235 0.054999
0.669015 0.659348 0.055012
0.693438 0.700134 0.055000
0.725206 0.737928 0.055014
0.775851 0.768266 0.054995
0.836500 0.793733 0.054997
0.913288 0.807594 0.055007
1.000000 0.813574 0.054988
0.000000 0.079150 0.054975
0.206397 0.083984 0.055002
0.368415 0.110406 0.055001
0.478731 0.155337 0.055000
0.550788 0.206988 0.055000
0.590683 0.268853 0.054999
0.615232 0.334361 0.054992
0.622056 0.396535 0.054999
0.614309 0.456393 0.054997
0.609636 0.515333 0.054997
0.602490 0.569851 0.055004
0.603450 0.622056 0.054997
0.604427 0.670556 0.054994
0.631120 0.718112 0.055002
0.666767 0.760592 0.054997
0.724968 0.794460 0.055002
0.796692 0.822898 0.055009
0.891093 0.837949 0.055008
1.000000 0.842895 0.055018
0.000000 0.094664 0.055033
0.182368 0.099285 0.055021
0.330217 0.122726 0.054996
0.433112 0.166784 0.055006
0.505176 0.216528 0.055009
0.544128 0.276277 0.055014
0.568785 0.339949 0.055010
0.569871 0.397530 0.054993
0.562642 0.453547 0.054997
0.555097 0.509052 0.055005
0.546452 0.562643 0.055007
0.543611 0.614316 0.055011
0.541149 0.664640 0.054993
0.566930 0.719058 0.055012
0.602814 0.768955 0.055010
0.668412 0.810707 0.054992
0.753518 0.845725 0.055008
0.866696 0.862896 0.055005
1.000000 0.868332 0.054984
0.000000 0.111720 0.054988
0.159487 0.116802 0.055005
0.289271 0.137028 0.054999
0.382736 0.176444 0.054998
0.452922 0.222746 0.055010
0.490379 0.276707 0.055000
0.515607 0.335114 0.054995
0.515338 0.390359 0.055004
0.509052 0.444899 0.055004
0.500005 0.500010 0.055002
0.490938 0.555100 0.055005
0.484668 0.609650 0.055000
0.484379 0.664889 0.054995
0.509656 0.723322 0.054996
0.547126 0.777281 0.055001
0.617245 0.823571 0.054998
0.710724 0.862980 0.055013
0.840488 0.883210 0.055002
1.000000 0.888267 0.055051
0.000000 0.131690 0.055038
0.133283 0.137128 0.054991
0.246486 0.154263 0.054994
0.331579 0.189290 0.054993
0.397167 0.231029 0.054999
0.433069 0.280926 0.055000
0.458858 0.335364 0.054988
0.456387 0.385693 0.055004
0.453553 0.437359 0.054989
0.444901 0.490942 0.055009
0.437355 0.546454 0.054996
0.430135 0.602474 0.055006
0.431214 0.660027 0.055005
0.455863 0.723693 0.054995
0.494775 0.783430 0.054997
0.566920 0.833236 0.054979
0.669778 0.877288 0.055001
0.817626 0.900698 0.055002
1.000000 0.905350 0.054974
0.000000 0.157131 0.054980
0.108899 0.162063 0.055002
0.203328 0.177096 0.054998
0.275025 0.205535 0.055005
0.333224 0.239417 0.054996
0.368882 0.281896 0.054995
0.395570 0.329445 0.054997
0.396549 0.377941 0.054999
0.397517 0.430140 0.055006
0.390355 0.484665 0.054999
0.385693 0.543606 0.055006
0.377928 0.603468 0.054991
0.384769 0.665641 0.055009
0.409328 0.731165 0.055011
0.449202 0.793021 0.055005
0.521265 0.844657 0.055004
0.631510 0.889602 0.054996
0.793597 0.916001 0.054998
1.000000 0.920847 0.055104
0.000000 0.186457 0.055017
0.086713 0.192420 0.055005
0.163483 0.206284 0.055003
0.224125 0.231723 0.054995
0.274773 0.262057 0.055007
0.306556 0.299859 0.055008
0.330967 0.340638 0.054990
0.334387 0.384761 0.054992
0.339971 0.431222 0.055004
0.335101 0.484408 0.055002
0.335370 0.541144 0.054995
0.329440 0.604427 0.054995
0.340640 0.669021 0.055006
0.364523 0.737472 0.055006
0.405206 0.801151 0.054978
0.478117 0.855984 0.055003
0.595613 0.901080 0.054977
0.770508 0.929442 0.055009
1.000000 0.933776 0.055020
0.000000 0.226134 0.055006
0.063525 0.232037 0.055000
0.121586 0.243209 0.054992
0.169810 0.265265 0.054994
0.211533 0.291581 0.054999
0.239823 0.326512 0.055003
0.262484 0.364546 0.055006
0.268852 0.409319 0.054998
0.276289 0.455853 0.055001
0.276693 0.509615 0.055002
0.280929 0.566934 0.054996
0.281893 0.631125 0.054995
0.299863 0.693451 0.055004
0.326510 0.760191 0.055004
0.370417 0.820531 0.054992
0.445149 0.872778 0.055007
0.566312 0.914286 0.055001
0.752761 0.942262 0.054987
1.000000 0.945777 0.054944
0.000000 0.280136 0.054993
0.044835 0.286328 0.055005
0.086749 0.297019 0.055010
0.123474 0.315902 0.054998
0.155923 0.339488 0.054997
0.179473 0.370414 0.054989
0.198813 0.405228 0.055004
0.206983 0.449192 0.054999
0.216544 0.494815 0.055012
0.222735 0.547098 0.055005
0.231034 0.602816 0.055001
0.239415 0.666776 0.054995
0.262058 0.725217 0.055006
0.291576 0.788463 0.055002
0.339490 0.844083 0.054993
0.416928 0.892065 0.055003
0.540847 0.928275 0.054989
0.737998 0.954101 0.055010
1.000000 0.956970 0.054956
0.000000 0.367318 0.055002
0.029578 0.371706 0.054995
0.058062 0.381045 0.054998
0.084320 0.396025 0.055010
0.107948 0.416912 0.055000
0.127207 0.445169 0.055005
0.144014 0.478115 0.054992
0.155345 0.521261 0.055014
0.166767 0.566905 0.054982
0.176429 0.617249 0.054993
0.189291 0.668419 0.054993
0.205538 0.724966 0.055009
0.231729 0.775867 0.054990
0.265256 0.830192 0.054994
0.315900 0.876515 0.055001
0.396027 0.915684 0.055011
0.520546 0.944340 0.054985
0.725951 0.965833 0.054987
1.000000 0.968141 0.055029
0.000000 0.493536 0.054992
0.019456 0.497049 0.054992
0.038131 0.506546 0.054988
0.055662 0.520509 0.054982
0.071700 0.540884 0.055000
0.085698 0.566316 0.055007
0.098915 0.595604 0.055004
0.110407 0.631507 0.055004
0.122701 0.669819 0.055001
0.137018 0.710718 0.055021
0.154272 0.753519 0.055008
0.177099 0.796682 0.055006
0.206268 0.836520 0.055005
0.243216 0.878416 0.054992
0.297023 0.913255 0.055011
0.381045 0.941934 0.054999
0.506545 0.961873 0.054984
0.718494 0.977338 0.055029
1.000000 0.978887 0.055052
0.000000 0.709907 0.055026
0.011215 0.711467 0.055008
0.022645 0.718543 0.055048
0.034160 0.726016 0.054989
0.045886 0.738037 0.055015
0.057728 0.752760 0.054987
0.070554 0.770482 0.055011
0.084003 0.793590 0.054985
0.099297 0.817594 0.054984
0.116788 0.840462 0.055010
0.137111 0.866713 0.055003
0.162050 0.891094 0.055011
0.192412 0.913306 0.054999
0.232033 0.936478 0.054999
0.286329 0.955168 0.055001
0.371710 0.970420 0.054999
0.497051 0.980546 0.054988
0.711447 0.988776 0.055010
1.000000 0.989602 0.054900
0.000000 1.000000 0.054701
0.010382 1.000000 0.054836
0.021117 1.000000 0.055045
0.031859 1.000000 0.055053
0.043007 1.000000 0.054974
0.054204 1.000000 0.054984
0.066217 1.000000 0.054982
0.079150 1.000000 0.055055
0.094630 1.000000 0.054961
0.111718 1.000000 0.055058
0.131692 1.000000 0.054983
0.157101 1.000000 0.055022
0.186439 1.000000 0.054973
0.226139 1.000000 0.055018
0.280142 1.000000 0.054983
0.367325 1.000000 0.055013
0.493543 1.000000 0.054987
0.709922 1.000000 0.055039
1.000000 1.000000 0.054783
0.000000 0.000000 0.109938
0.290041 0.000000 0.110019
0.506546 0.000000 0.110004
0.632693 0.000000 0.109996
0.719852 0.000000 0.110001
0.773866 0.000000 0.109990
0.813545 0.000000 0.109986
0.842877 0.000000 0.110036
0.868304 0.000000 0.109969
0.888288 0.000000 0.110030
0.905371 0.000000 0.109994
0.920859 0.000000 0.109973
0.933729 0.000000 0.110036
0.945695 0.000000 0.109968
0.956889 0.000000 0.109961
0.968063 0.000000 0.110006
0.978777 0.000000 0.109928