# vtk DataFile Version 2.0
Mesh for Fierro
ASCII 
DATASET UNSTRUCTURED_GRID

POINTS 2527 float
0.000000 0.000000 0.000000
0.509156 0.000000 0.000000
0.839845 0.000000 0.000000
0.871611 0.000000 0.000000
0.901526 0.000000 0.000000
0.919195 0.000000 0.000000
0.931853 0.000000 0.000000
0.942286 0.000000 0.000000
0.951181 0.000000 0.000000
0.958680 0.000000 0.000000
0.964844 0.000000 0.000000
0.969972 0.000000 0.000000
0.974087 0.000000 0.000000
0.978062 0.000000 0.000000
0.981939 0.000000 0.000000
0.986645 0.000000 0.000000
0.991395 0.000000 0.000000
0.996357 0.000000 0.000000
1.000000 0.000000 0.000000
0.000000 0.003654 0.000000
0.515406 0.006784 0.000000
0.818413 0.032454 0.000000
0.843546 0.087104 0.000000
0.887444 0.089474 0.000000
0.904238 0.173485 0.000000
0.917739 0.219724 0.000000
0.926979 0.272602 0.000000
0.934035 0.325766 0.000000
0.939770 0.377179 0.000000
0.945458 0.421175 0.000000
0.950847 0.464381 0.000000
0.956020 0.502949 0.000000
0.962464 0.527690 0.000000
0.969429 0.545834 0.000000
0.977704 0.546798 0.000000
0.985534 0.542055 0.000000
0.993225 0.515430 0.000000
1.000000 0.508483 0.000000
0.000000 0.008583 0.000000
0.541452 0.014452 0.000000
0.792194 0.053498 0.000000
0.818804 0.133459 0.000000
0.878079 0.175364 0.000000
0.888255 0.298274 0.000000
0.896890 0.384574 0.000000
0.900769 0.457501 0.000000
0.900486 0.527436 0.000000
0.898420 0.581766 0.000000
0.893422 0.625263 0.000000
0.888860 0.658156 0.000000
0.887820 0.686085 0.000000
0.893842 0.710618 0.000000
0.910192 0.732909 0.000000
0.929152 0.760258 0.000000
0.946589 0.792074 0.000000
0.967514 0.818717 0.000000
1.000000 0.840295 0.000000
0.000000 0.013316 0.000000
0.547289 0.022349 0.000000
0.760418 0.071112 0.000000
0.812871 0.168842 0.000000
0.860759 0.252037 0.000000
0.861330 0.367695 0.000000
0.853617 0.463551 0.000000
0.851459 0.524881 0.000000
0.833735 0.589782 0.000000
0.814380 0.641067 0.000000
0.792609 0.689132 0.000000
0.780352 0.730151 0.000000
0.777425 0.763154 0.000000
0.781570 0.790600 0.000000
0.803094 0.804858 0.000000
0.831198 0.812825 0.000000
0.866680 0.818813 0.000000
0.912978 0.843554 0.000000
1.000000 0.871924 0.000000
0.000000 0.017991 0.000000
0.545936 0.030576 0.000000
0.732777 0.089855 0.000000
0.804979 0.196912 0.000000
0.828713 0.306795 0.000000
0.832365 0.410552 0.000000
0.802168 0.513663 0.000000
0.792248 0.577047 0.000000
0.755618 0.640619 0.000000
0.722872 0.684563 0.000000
0.698869 0.717755 0.000000
0.680357 0.743081 0.000000
0.668635 0.766762 0.000000
0.674201 0.795637 0.000000
0.693142 0.828798 0.000000
0.748198 0.860724 0.000000
0.824516 0.878146 0.000000
0.910510 0.887880 0.000000
1.000000 0.902582 0.000000
0.000000 0.021872 0.000000
0.527460 0.037521 0.000000
0.710547 0.106169 0.000000
0.790572 0.218294 0.000000
0.795688 0.325654 0.000000
0.801941 0.430209 0.000000
0.757831 0.518678 0.000000
0.740537 0.583468 0.000000
0.696440 0.628107 0.000000
0.652883 0.663338 0.000000
0.614665 0.696446 0.000000
0.582982 0.731068 0.000000
0.565347 0.767261 0.000000
0.569790 0.801907 0.000000
0.589482 0.832350 0.000000
0.632199 0.861359 0.000000
0.701654 0.888185 0.000000
0.826048 0.904028 0.000000
1.000000 0.919180 0.000000
0.000000 0.025836 0.000000
0.502871 0.043973 0.000000
0.685944 0.112196 0.000000
0.763188 0.222566 0.000000
0.766724 0.331451 0.000000
0.767319 0.434601 0.000000
0.719104 0.512732 0.000000
0.684546 0.577032 0.000000
0.623440 0.610012 0.000000
0.580148 0.644747 0.000000
0.537426 0.668382 0.000000
0.513817 0.697469 0.000000
0.487205 0.719185 0.000000
0.481270 0.757938 0.000000
0.486356 0.802297 0.000000
0.536555 0.853751 0.000000
0.615277 0.897010 0.000000
0.780517 0.917473 0.000000
1.000000 0.931296 0.000000
0.000000 0.029973 0.000000
0.464133 0.049143 0.000000
0.658042 0.111144 0.000000
0.730216 0.219690 0.000000
0.743023 0.319652 0.000000
0.731074 0.416982 0.000000
0.697423 0.486145 0.000000
0.654274 0.543427 0.000000
0.599651 0.570153 0.000000
0.546316 0.598831 0.000000
0.497007 0.623029 0.000000
0.456598 0.654249 0.000000
0.423008 0.684496 0.000000
0.416517 0.740519 0.000000
0.422915 0.792234 0.000000
0.475282 0.851585 0.000000
0.542322 0.900883 0.000000
0.727395 0.926954 0.000000
1.000000 0.942006 0.000000
0.000000 0.035094 0.000000
0.420958 0.054523 0.000000
0.625167 0.106547 0.000000
0.689162 0.207332 0.000000
0.717731 0.301104 0.000000
0.696431 0.385291 0.000000
0.668442 0.462535 0.000000
0.623081 0.502962 0.000000
0.572938 0.526685 0.000000
0.521421 0.551100 0.000000
0.473306 0.572957 0.000000
0.429787 0.599663 0.000000
0.389940 0.623456 0.000000
0.371927 0.696513 0.000000
0.359272 0.755606 0.000000
0.410256 0.833692 0.000000
0.472101 0.900484 0.000000
0.673964 0.934085 0.000000
1.000000 0.951024 0.000000
0.000000 0.041273 0.000000
0.377278 0.060209 0.000000
0.581823 0.101635 0.000000
0.641140 0.185637 0.000000
0.684587 0.277181 0.000000
0.663331 0.347144 0.000000
0.644745 0.419897 0.000000
0.598772 0.453726 0.000000
0.551063 0.478576 0.000000
0.499974 0.500019 0.000000
0.448870 0.521440 0.000000
0.401184 0.546285 0.000000
0.355277 0.580145 0.000000
0.336705 0.652855 0.000000
0.315392 0.722810 0.000000
0.358842 0.814277 0.000000
0.417914 0.898311 0.000000
0.622372 0.939828 0.000000
1.000000 0.958649 0.000000
0.000000 0.048760 0.000000
0.326120 0.065952 0.000000
0.527685 0.099595 0.000000
0.589844 0.166332 0.000000
0.640600 0.244290 0.000000
0.628121 0.303491 0.000000
0.610067 0.376591 0.000000
0.570203 0.400344 0.000000
0.526646 0.427031 0.000000
0.478593 0.448936 0.000000
0.427066 0.473306 0.000000
0.376943 0.497004 0.000000
0.331602 0.537479 0.000000
0.303552 0.614746 0.000000
0.282262 0.698873 0.000000
0.310902 0.792810 0.000000
0.374773 0.893544 0.000000
0.578758 0.945500 0.000000
1.000000 0.964897 0.000000
0.000000 0.057621 0.000000
0.272683 0.072964 0.000000
0.457706 0.099193 0.000000
0.524883 0.148526 0.000000
0.577058 0.207811 0.000000
0.583407 0.259522 0.000000
0.576988 0.315427 0.000000
0.543448 0.345735 0.000000
0.502996 0.376955 0.000000
0.453695 0.401202 0.000000
0.400351 0.429788 0.000000
0.345725 0.456637 0.000000
0.302534 0.513901 0.000000
0.268949 0.582962 0.000000
0.256943 0.680495 0.000000
0.269868 0.780431 0.000000
0.341775 0.888977 0.000000
0.535976 0.950918 0.000000
1.000000 0.970047 0.000000
0.000000 0.068013 0.000000
0.219534 0.082097 0.000000
0.384492 0.102932 0.000000
0.463551 0.146162 0.000000
0.513661 0.197771 0.000000
0.518727 0.242132 0.000000
0.512683 0.280909 0.000000
0.486113 0.302624 0.000000
0.462557 0.331665 0.000000
0.419825 0.355251 0.000000
0.376596 0.389913 0.000000
0.315478 0.423050 0.000000
0.280845 0.487225 0.000000
0.232761 0.565157 0.000000
0.233273 0.668709 0.000000
0.236772 0.777453 0.000000
0.313873 0.887940 0.000000
0.497183 0.956076 0.000000
1.000000 0.974087 0.000000
0.000000 0.080664 0.000000
0.173803 0.095734 0.000000
0.298441 0.111706 0.000000
0.367980 0.138667 0.000000
0.410539 0.167591 0.000000
0.430151 0.198022 0.000000
0.434740 0.232701 0.000000
0.417051 0.268939 0.000000
0.385315 0.303514 0.000000
0.347106 0.336651 0.000000
0.303557 0.371886 0.000000
0.259505 0.416552 0.000000
0.242096 0.481268 0.000000
0.198044 0.569741 0.000000
0.204478 0.674343 0.000000
0.209348 0.781698 0.000000
0.289335 0.893969 0.000000
0.472137 0.962482 0.000000
1.000000 0.978071 0.000000
0.000000 0.098471 0.000000
0.089448 0.112435 0.000000
0.175385 0.121999 0.000000
0.251868 0.139306 0.000000
0.306827 0.171371 0.000000
0.325626 0.204461 0.000000
0.331301 0.233265 0.000000
0.319504 0.256949 0.000000
0.301119 0.282265 0.000000
0.277202 0.315362 0.000000
0.244421 0.359285 0.000000
0.207807 0.422949 0.000000
0.197717 0.486318 0.000000
0.167648 0.589488 0.000000
0.171374 0.693240 0.000000
0.195036 0.803150 0.000000
0.267243 0.910425 0.000000
0.453727 0.969398 0.000000
1.000000 0.982007 0.000000
0.000000 0.128537 0.000000
0.087242 0.156469 0.000000
0.133426 0.181347 0.000000
0.168749 0.187346 0.000000
0.196915 0.195065 0.000000
0.218288 0.209406 0.000000
0.222562 0.236789 0.000000
0.219559 0.269868 0.000000
0.207280 0.310845 0.000000
0.185802 0.358823 0.000000
0.166318 0.410290 0.000000
0.148422 0.475235 0.000000
0.146168 0.536495 0.000000
0.138670 0.632053 0.000000
0.139318 0.747968 0.000000
0.187321 0.831301 0.000000
0.239704 0.929264 0.000000
0.452868 0.977653 0.000000
1.000000 0.986735 0.000000
0.000000 0.160672 0.000000
0.032465 0.181628 0.000000
0.053412 0.207932 0.000000
0.070739 0.239703 0.000000
0.089632 0.267199 0.000000
0.106050 0.289327 0.000000
0.112076 0.313865 0.000000
0.111048 0.341789 0.000000
0.106535 0.374750 0.000000
0.101718 0.417931 0.000000
0.099516 0.472119 0.000000
0.099088 0.542370 0.000000
0.102910 0.615253 0.000000
0.111642 0.701544 0.000000
0.121999 0.824494 0.000000
0.181294 0.866561 0.000000
0.207901 0.946655 0.000000
0.457745 0.985480 0.000000
1.000000 0.991478 0.000000
0.000000 0.491200 0.000000
0.006768 0.483774 0.000000
0.014538 0.457449 0.000000
0.022353 0.453071 0.000000
0.030618 0.453636 0.000000
0.037528 0.471968 0.000000
0.043949 0.496882 0.000000
0.049092 0.535726 0.000000
0.054501 0.578460 0.000000
0.060142 0.622201 0.000000
0.065841 0.673892 0.000000
0.072851 0.727417 0.000000
0.082149 0.780169 0.000000
0.095800 0.826115 0.000000
0.112428 0.910565 0.000000
0.156412 0.912788 0.000000
0.181599 0.967570 0.000000
0.483895 0.993211 0.000000
1.000000 0.996351 0.000000
0.000000 1.000000 0.000000
0.003664 1.000000 0.000000
0.008501 1.000000 0.000000
0.013210 1.000000 0.000000
0.017938 1.000000 0.000000
0.021829 1.000000 0.000000
0.025768 1.000000 0.000000
0.029848 1.000000 0.000000
0.034965 1.000000 0.000000
0.041181 1.000000 0.000000
0.048706 1.000000 0.000000
0.057640 1.000000 0.000000
0.068226 1.000000 0.000000
0.080712 1.000000 0.000000
0.098115 1.000000 0.000000
0.128473 1.000000 0.000000
0.160404 1.000000 0.000000
0.491244 1.000000 0.000000
1.000000 1.000000 0.000000
0.000000 0.000000 0.055243
0.509164 0.000000 0.055048
0.838531 0.000000 0.054988
0.871056 0.000000 0.055048
0.901582 0.000000 0.054991
[...]
POINT_DATA 2527 
VECTORS pos float 
0.000000 0.000000 0.000000
0.509156 0.000000 0.000000
0.839845 0.000000 0.000000
0.871611 0.000000 0.000000
0.901526 0.000000 0.000000
0.919195 0.000000 0.000000
0.931853 0.000000 0.000000
0.942286 0.000000 0.000000
0.951181 0.000000 0.000000
0.958680 0.000000 0.000000
0.964844 0.000000 0.000000
0.969972 0.000000 0.000000
0.974087 0.000000 0.000000
0.978062 0.000000 0.000000
0.981939 0.000000 0.000000
0.986645 0.000000 0.000000
0.991395 0.000000 0.000000
0.996357 0.000000 0.000000
1.000000 0.000000 0.000000
0.000000 0.003654 0.000000
0.515406 0.006784 0.000000
0.818413 0.032454 0.000000
0.843546 0.087104 0.000000
0.887444 0.089474 0.000000
0.904238 0.173485 0.000000
0.917739 0.219724 0.000000
0.926979 0.272602 0.000000
0.934035 0.325766 0.000000
0.939770 0.377179 0.000000
0.945458 0.421175 0.000000
0.950847 0.464381 0.000000
0.956020 0.502949 0.000000
0.962464 0.527690 0.000000
0.969429 0.545834 0.000000
0.977704 0.546798 0.000000
0.985534 0.542055 0.000000
0.993225 0.515430 0.000000
1.000000 0.508483 0.000000
0.000000 0.008583 0.000000
0.541452 0.014452 0.000000
0.792194 0.053498 0.000000
0.818804 0.133459 0.000000
0.878079 0.175364 0.000000
0.888255 0.298274 0.000000
0.896890 0.384574 0.000000
0.900769 0.457501 0.000000
0.900486 0.527436 0.000000
0.898420 0.581766 0.000000
0.893422 0.625263 0.000000
0.888860 0.658156 0.000000
0.887820 0.686085 0.000000
0.893842 0.710618 0.000000
0.910192 0.732909 0.000000
0.929152 0.760258 0.000000
0.946589 0.792074 0.000000
0.967514 0.818717 0.000000
1.000000 0.840295 0.000000
0.000000 0.013316 0.000000
0.547289 0.022349 0.000000
0.760418 0.071112 0.000000
0.812871 0.168842 0.000000
0.860759 0.252037 0.000000
0.861330 0.367695 0.000000
0.853617 0.463551 0.000000
0.851459 0.524881 0.000000
0.833735 0.589782 0.000000
0.814380 0.641067 0.000000
0.792609 0.689132 0.000000
0.780352 0.730151 0.000000
0.777425 0.763154 0.000000
0.781570 0.790600 0.000000
0.803094 0.804858 0.000000
0.831198 0.812825 0.000000
0.866680 0.818813 0.000000
0.912978 0.843554 0.000000
1.000000 0.871924 0.000000
0.000000 0.017991 0.000000
0.545936 0.030576 0.000000
0.732777 0.089855 0.000000
0.804979 0.196912 0.000000
0.828713 0.306795 0.000000
0.832365 0.410552 0.000000
0.802168 0.513663 0.000000
0.792248 0.577047 0.000000
0.755618 0.640619 0.000000
0.722872 0.684563 0.000000
0.698869 0.717755 0.000000
0.680357 0.743081 0.000000
0.668635 0.766762 0.000000
0.674201 0.795637 0.000000
0.693142 0.828798 0.000000
0.748198 0.860724 0.000000
0.824516 0.878146 0.000000
0.910510 0.887880 0.000000
1.000000 0.902582 0.000000
0.000000 0.021872 0.000000
0.527460 0.037521 0.000000
0.710547 0.106169 0.000000
0.790572 0.218294 0.000000
0.795688 0.325654 0.000000
0.801941 0.430209 0.000000
0.757831 0.518678 0.000000
0.740537 0.583468 0.000000
0.696440 0.628107 0.000000
0.652883 0.663338 0.000000
0.614665 0.696446 0.000000
0.582982 0.731068 0.000000
0.565347 0.767261 0.000000
0.569790 0.801907 0.000000
0.589482 0.832350 0.000000
0.632199 0.861359 0.000000
0.701654 0.888185 0.000000
0.826048 0.904028 0.000000
1.000000 0.919180 0.000000
0.000000 0.025836 0.000000
0.502871 0.043973 0.000000
0.685944 0.112196 0.000000
0.763188 0.222566 0.000000
0.766724 0.331451 0.000000
0.767319 0.434601 0.000000
0.719104 0.512732 0.000000
0.684546 0.577032 0.000000
0.623440 0.610012 0.000000
0.580148 0.644747 0.000000
0.537426 0.668382 0.000000
0.513817 0.697469 0.000000
0.487205 0.719185 0.000000
0.481270 0.757938 0.000000
0.486356 0.802297 0.000000
0.536555 0.853751 0.000000
0.615277 0.897010 0.000000
0.780517 0.917473 0.000000
1.000000 0.931296 0.000000
0.000000 0.029973 0.000000
0.464133 0.049143 0.000000
0.658042 0.111144 0.000000
0.730216 0.219690 0.000000
0.743023 0.319652 0.000000
0.731074 0.416982 0.000000
0.697423 0.486145 0.000000
0.654274 0.543427 0.000000
0.599651 0.570153 0.000000
0.546316 0.598831 0.000000
0.497007 0.623029 0.000000
0.456598 0.654249 0.000000
0.423008 0.684496 0.000000
0.416517 0.740519 0.000000
0.422915 0.792234 0.000000
0.475282 0.851585 0.000000
0.542322 0.900883 0.000000
0.727395 0.926954 0.000000
1.000000 0.942006 0.000000
0.000000 0.035094 0.000000
0.420958 0.054523 0.000000
0.625167 0.106547 0.000000
0.689162 0.207332 0.000000
0.717731 0.301104 0.000000
0.696431 0.385291 0.000000
0.668442 0.462535 0.000000
0.623081 0.502962 0.000000
0.572938 0.526685 0.000000
0.521421 0.551100 0.000000
0.473306 0.572957 0.000000
0.429787 0.599663 0.000000
0.389940 0.623456 0.000000
0.371927 0.696513 0.000000
0.359272 0.755606 0.000000
0.410256 0.833692 0.000000
0.472101 0.900484 0.000000
0.673964 0.934085 0.000000
1.000000 0.951024 0.000000
0.000000 0.041273 0.000000
0.377278 0.060209 0.000000
0.581823 0.101635 0.000000
0.641140 0.185637 0.000000
0.684587 0.277181 0.000000
0.663331 0.347144 0.000000
0.644745 0.419897 0.000000
0.598772 0.453726 0.000000
0.551063 0.478576 0.000000
0.499974 0.500019 0.000000
0.448870 0.521440 0.000000
0.401184 0.546285 0.000000
0.355277 0.580145 0.000000
0.336705 0.652855 0.000000
0.315392 0.722810 0.000000
0.358842 0.814277 0.000000
0.417914 0.898311 0.000000
0.622372 0.939828 0.000000
1.000000 0.958649 0.000000
0.000000 0.048760 0.000000
0.326120 0.065952 0.000000
0.527685 0.099595 0.000000
0.589844 0.166332 0.000000
0.640600 0.244290 0.000000
0.628121 0.303491 0.000000
0.610067 0.376591 0.000000
0.570203 0.400344 0.000000
0.526646 0.427031 0.000000
0.478593 0.448936 0.000000
0.427066 0.473306 0.000000
0.376943 0.497004 0.000000
0.331602 0.537479 0.000000
0.303552 0.614746 0.000000
0.282262 0.698873 0.000000
0.310902 0.792810 0.000000
0.374773 0.893544 0.000000
0.578758 0.945500 0.000000
1.000000 0.964897 0.000000
0.000000 0.057621 0.000000
0.272683 0.072964 0.000000
0.457706 0.099193 0.000000
0.524883 0.148526 0.000000
0.577058 0.207811 0.000000
0.583407 0.259522 0.000000
0.576988 0.315427 0.000000
0.543448 0.345735 0.000000
0.502996 0.376955 0.000000
0.453695 0.401202 0.000000
0.400351 0.429788 0.000000
0.345725 0.456637 0.000000
0.302534 0.513901 0.000000
0.268949 0.582962 0.000000
0.256943 0.680495 0.000000
0.269868 0.780431 0.000000
0.341775 0.888977 0.000000
0.535976 0.950918 0.000000
1.000000 0.970047 0.000000
0.000000 0.068013 0.000000
0.219534 0.082097 0.000000
0.384492 0.102932 0.000000
0.463551 0.146162 0.000000
0.513661 0.197771 0.000000
0.518727 0.242132 0.000000
0.512683 0.280909 0.000000
0.486113 0.302624 0.000000
0.462557 0.331665 0.000000
0.419825 0.355251 0.000000
0.376596 0.389913 0.000000
0.315478 0.423050 0.000000
0.280845 0.487225 0.000000
0.232761 0.565157 0.000000
0.233273 0.668709 0.000000
0.236772 0.777453 0.000000
0.313873 0.887940 0.000000
0.497183 0.956076 0.000000
1.000000 0.974087 0.000000
0.000000 0.080664 0.000000
0.173803 0.095734 0.000000
0.298441 0.111706 0.000000
0.367980 0.138667 0.000000
0.410539 0.167591 0.000000
0.430151 0.198022 0.000000
0.434740 0.232701 0.000000
0.417051 0.268939 0.000000
0.385315 0.303514 0.000000
0.347106 0.336651 0.000000
0.303557 0.371886 0.000000
0.259505 0.416552 0.000000
0.242096 0.481268 0.000000
0.198044 0.569741 0.000000
0.204478 0.674343 0.000000
0.209348 0.781698 0.000000
0.289335 0.893969 0.000000
0.472137 0.962482 0.000000
1.000000 0.978071 0.000000
0.000000 0.098471 0.000000
0.089448 0.112435 0.000000
0.175385 0.121999 0.000000
0.251868 0.139306 0.000000
0.306827 0.171371 0.000000
0.325626 0.204461 0.000000
0.331301 0.233265 0.000000
0.319504 0.256949 0.000000
0.301119 0.282265 0.000000
0.277202 0.315362 0.000000
0.244421 0.359285 0.000000
0.207807 0.422949 0.000000
0.197717 0.486318 0.000000
0.167648 0.589488 0.000000
0.171374 0.693240 0.000000
0.195036 0.803150 0.000000
0.267243 0.910425 0.000000
0.453727 0.969398 0.000000
1.000000 0.982007 0.000000
0.000000 0.128537 0.000000
0.087242 0.156469 0.000000
0.133426 0.181347 0.000000
0.168749 0.187346 0.000000
0.196915 0.195065 0.000000
0.218288 0.209406 0.000000
0.222562 0.236789 0.000000
0.219559 0.269868 0.000000
0.207280 0.310845 0.000000
0.185802 0.358823 0.000000
0.166318 0.410290 0.000000
0.148422 0.475235 0.000000
0.146168 0.536495 0.000000
0.138670 0.632053 0.000000
0.139318 0.747968 0.000000
0.187321 0.831301 0.000000
0.239704 0.929264 0.000000
0.452868 0.977653 0.000000
1.000000 0.986735 0.000000
0.000000 0.160672 0.000000
0.032465 0.181628 0.000000
0.053412 0.207932 0.000000
0.070739 0.239703 0.000000
0.089632 0.267199 0.000000
0.106050 0.289327 0.000000
0.112076 0.313865 0.000000
0.111048 0.341789 0.000000
0.106535 0.374750 0.000000
0.101718 0.417931 0.000000
0.099516 0.472119 0.000000
0.099088 0.542370 0.000000
0.102910 0.615253 0.000000
0.111642 0.701544 0.000000
0.121999 0.824494 0.000000
0.181294 0.866561 0.000000
0.207901 0.946655 0.000000
0.457745 0.985480 0.000000
1.000000 0.991478 0.000000
0.000000 0.491200 0.000000
0.006768 0.483774 0.000000
0.014538 0.457449 0.000000
0.022353 0.453071 0.000000
0.030618 0.453636 0.000000
0.037528 0.471968 0.000000
0.043949 0.496882 0.000000
0.049092 0.535726 0.000000
0.054501 0.578460 0.000000
0.060142 0.622201 0.000000
0.065841 0.673892 0.000000
0.072851 0.727417 0.000000
0.082149 0.780169 0.000000
0.095800 0.826115 0.000000
0.112428 0.910565 0.000000
0.156412 0.912788 0.000000
0.181599 0.967570 0.000000
0.483895 0.993211 0.000000
1.000000 0.996351 0.000000
0.000000 1.000000 0.000000
0.003664 1.000000 0.000000
0.008501 1.000000 0.000000
0.013210 1.000000 0.000000
0.017938 1.000000 0.000000
0.021829 1.000000 0.000000
0.025768 1.000000 0.000000
0.029848 1.000000 0.000000
0.034965 1.000000 0.000000
0.041181 1.000000 0.000000
0.048706 1.000000 0.000000
0.057640 1.000000 0.000000
0.068226 1.000000 0.000000
0.080712 1.000000 0.000000
0.098115 1.000000 0.000000
0.128473 1.000000 0.000000
0.160404 1.000000 0.000000
0.491244 1.000000 0.000000
1.000000 1.000000 0.000000
0.000000 0.000000 0.055243
0.509164 0.000000 0.055048
0.838531 0.000000 0.054988
0.871056 0.000000 0.055048
0.901582 0.000000 0.054991
0.919578 0.000000 0.054667
0.932315 0.000000 0.055125
0.942642 0.000000 0.055096
0.951491 0.000000 0.055136
0.958940 0.000000 0.055199
0.965103 0.000000 0.055063
0.970186 0.000000 0.054934
0.974287 0.000000 0.054892
0.978237 0.000000 0.054847
0.982081 0.000000 0.054955
0.986761 0.000000 0.054895
0.991468 0.000000 0.054955
0.996390 0.000000 0.055042
1.000000 0.000000 0.055090
0.000000 0.003622 0.055205
0.516241 0.006780 0.055093
0.817883 0.032415 0.055003
0.843486 0.087411 0.054945
0.887617 0.089293 0.055115
0.904374 0.173728 0.054801
0.918069 0.219479 0.055085
0.927159 0.272970 0.055118
0.934158 0.326188 0.055023
0.939842 0.377752 0.054986
0.945485 0.421478 0.055017
0.950891 0.464148 0.054957
0.955999 0.503431 0.054951
0.962426 0.528177 0.054990
0.969352 0.546598 0.055002
0.977655 0.546538 0.054990
0.985498 0.541703 0.055073
0.993193 0.516440 0.055107
1.000000 0.509570 0.055073
0.000000 0.008532 0.055037
0.542108 0.014489 0.055070
0.791974 0.053452 0.054989
0.818762 0.133489 0.055025
0.878063 0.175456 0.055001
0.888358 0.298362 0.055036
0.897062 0.384552 0.054950
0.900770 0.457755 0.054955
0.900426 0.527833 0.054949
0.898305 0.581880 0.054956
0.893510 0.625108 0.054996
0.888969 0.658017 0.054982
0.887779 0.685973 0.055040
0.893746 0.710625 0.055021
0.909958 0.732963 0.055079
0.929010 0.760341 0.055062
0.946637 0.791883 0.055058
0.967633 0.817740 0.054948
1.000000 0.838344 0.055006
0.000000 0.013244 0.054922
0.546935 0.022342 0.055001
0.760334 0.071033 0.054973
0.812769 0.168822 0.054953
0.860770 0.251907 0.055035
0.861346 0.367865 0.055047
0.853768 0.463475 0.054971
0.851494 0.524845 0.054997
0.833670 0.589765 0.054997
0.814254 0.641187 0.055041
0.792770 0.689141 0.055009
0.780389 0.730156 0.055006
0.777473 0.763245 0.055008
0.781704 0.790639 0.054959
0.803083 0.804975 0.054959
0.831127 0.812781 0.054916
0.866502 0.818734 0.054925
0.912565 0.843458 0.054922
1.000000 0.870962 0.055018
0.000000 0.017940 0.054926
0.546433 0.030623 0.054967
0.732906 0.089962 0.055029
0.804940 0.196906 0.054970
0.828683 0.306921 0.054961
0.832368 0.410481 0.055029
0.802269 0.513633 0.054979
0.792208 0.577088 0.054995
0.755628 0.640707 0.054998
0.722836 0.684567 0.055028
0.698854 0.717694 0.054984
0.680534 0.743045 0.055015
0.668656 0.766670 0.055014
0.674361 0.795569 0.055019
0.693030 0.828689 0.054975
0.748110 0.860794 0.055031
0.824649 0.878040 0.055036
0.910703 0.887462 0.054919
1.000000 0.901174 0.054879
0.000000 0.021812 0.054858
0.528123 0.037566 0.054943
0.710594 0.106236 0.055059
0.790635 0.218314 0.054963
0.795550 0.325721 0.055011
0.801936 0.430154 0.055015
0.757868 0.518772 0.054960
0.740523 0.583503 0.055010
0.696453 0.628105 0.055014
0.652816 0.663341 0.054972
0.614696 0.696524 0.054998
0.582913 0.731057 0.055010
0.565303 0.767311 0.055004
0.569844 0.801921 0.054983
0.589534 0.832361 0.054997
0.632108 0.861331 0.054965
0.701641 0.888392 0.055007
0.826369 0.904456 0.055059
1.000000 0.919613 0.055591
0.000000 0.025764 0.054869
0.503182 0.043984 0.054919
0.685978 0.112197 0.055053
0.763240 0.222551 0.055018
0.766678 0.331341 0.054990
0.767295 0.434688 0.054999
0.719166 0.512707 0.054994
0.684585 0.576967 0.054999
0.623458 0.610020 0.054993
0.580193 0.644752 0.055003
0.537455 0.668365 0.055009
0.513833 0.697372 0.054983
0.487319 0.719148 0.055028
0.481235 0.757891 0.054967
0.486318 0.802245 0.055003
0.536510 0.853754 0.054994
0.615532 0.897055 0.055001
0.780366 0.918227 0.054979
1.000000 0.932667 0.054828
0.000000 0.029872 0.054923
0.464089 0.049104 0.054953
0.658037 0.111040 0.055029
0.730138 0.219600 0.055016
0.743038 0.319452 0.054988
0.731056 0.417059 0.054997
0.697402 0.486171 0.055006
0.654281 0.543378 0.054993
0.599662 0.570172 0.054999
0.546300 0.598825 0.055007
0.497040 0.623009 0.055011
0.456613 0.654260 0.055010
0.423044 0.684591 0.054991
0.416531 0.740509 0.054998
0.422912 0.792226 0.054979
0.475173 0.851521 0.054956
0.542261 0.900759 0.054989
0.727033 0.927224 0.054976
1.000000 0.942836 0.054842
0.000000 0.034963 0.055002
0.421249 0.054491 0.055015
0.625107 0.106464 0.055023
0.689138 0.207248 0.055020
0.717691 0.301104 0.055043
0.696517 0.385273 0.055034
0.668387 0.462544 0.055010
0.623030 0.502971 0.054980
0.572937 0.526694 0.055002
0.521428 0.551068 0.054997
0.473307 0.572940 0.054995
0.429838 0.599667 0.054996
0.389984 0.623480 0.055009
0.371890 0.696461 0.055016
0.359333 0.755615 0.055022
0.410212 0.833678 0.054984
0.472151 0.900380 0.054988
0.673749 0.934144 0.055019
1.000000 0.951582 0.054910
0.000000 0.041104 0.055092
0.377698 0.060162 0.054990
0.581864 0.101672 0.055024
0.641187 0.185701 0.055004
0.684549 0.277206 0.055017
0.663331 0.347205 0.054991
0.644745 0.419843 0.055023
0.598818 0.453716 0.054999
0.551082 0.478574 0.055009
0.499996 0.500017 0.055022
0.448906 0.521431 0.055007
0.401179 0.546302 0.055007
0.355268 0.580189 0.055001
0.336660 0.652860 0.054983
0.315422 0.722858 0.055019
0.358832 0.814310 0.054991
0.418116 0.898279 0.055054
0.622491 0.939846 0.055021
1.000000 0.959015 0.055039
0.000000 0.048570 0.055039
0.326329 0.065898 0.055015
0.527832 0.099592 0.055031
0.589792 0.166336 0.054982
0.640697 0.244336 0.054998
0.628107 0.303511 0.054955
0.610027 0.376549 0.055008
0.570173 0.400332 0.054992
0.526676 0.427056 0.054984
0.478581 0.448920 0.055012
0.427052 0.473315 0.054991
0.376961 0.497014 0.055003
0.331646 0.537431 0.055002
0.303513 0.614659 0.054989
0.282296 0.698825 0.054988
0.310873 0.792778 0.055002
0.374909 0.893506 0.055019
0.578900 0.945480 0.055000
1.000000 0.965193 0.055005
0.000000 0.057500 0.055011
0.272926 0.072913 0.055097
0.457763 0.099220 0.055040
0.524854 0.148534 0.055016
0.577081 0.207787 0.054979
0.583495 0.259470 0.055004
0.576978 0.315407 0.054998
0.543430 0.345735 0.055006
0.502972 0.376971 0.054984
0.453695 0.401175 0.055002
0.400349 0.429838 0.054983
0.345718 0.456574 0.054990
0.302628 0.513883 0.055016
0.268909 0.582961 0.055002
0.256963 0.680478 0.054999
0.269868 0.780432 0.054987
0.341927 0.888884 0.055024
0.535871 0.950849 0.055002
1.000000 0.970252 0.055053
0.000000 0.067820 0.055046
0.219350 0.082087 0.055092
0.384434 0.102917 0.055053
0.463440 0.146221 0.055009
0.513666 0.197772 0.054997
0.518727 0.242174 0.055011
0.512641 0.280865 0.054978
0.486155 0.302653 0.055030
0.462549 0.331631 0.055007
0.419787 0.355254 0.055013
0.376535 0.389977 0.055009
0.315385 0.423045 0.054967
0.280859 0.487324 0.055053
0.232702 0.565277 0.055001
0.233320 0.668724 0.055001
0.236727 0.777444 0.055009
0.313964 0.887727 0.055010
0.497009 0.955983 0.055027
1.000000 0.974335 0.055022
0.000000 0.080484 0.054901
0.173973 0.095719 0.054883
0.298407 0.111778 0.054904
0.367883 0.138695 0.054943
0.410493 0.167627 0.054971
0.430192 0.198053 0.054974
0.434625 0.232670 0.054972
0.417052 0.268909 0.054989
0.385347 0.303499 0.054987
0.347173 0.336657 0.055006
0.303548 0.371888 0.054964
0.259461 0.416508 0.054986
0.242135 0.481259 0.055036
0.198054 0.569827 0.054954
0.204452 0.674242 0.055028
0.209303 0.781680 0.054998
0.289348 0.893658 0.054982
0.471973 0.962380 0.055028
1.000000 0.978272 0.055043
0.000000 0.098168 0.054965
0.089415 0.112306 0.055058
0.175332 0.121945 0.055037
0.251812 0.139307 0.054977
0.306907 0.171320 0.055021
0.325724 0.204444 0.055037
0.331313 0.233328 0.055006
0.319498 0.256957 0.055008
0.301149 0.282282 0.055022
0.277174 0.315402 0.055048
0.244393 0.359287 0.054986
0.207780 0.422916 0.055005
0.197756 0.486339 0.054983
0.167632 0.589516 0.054993
0.171315 0.693121 0.054974
0.195030 0.803161 0.055029
0.267026 0.909964 0.055045
0.453719 0.969325 0.055040
1.000000 0.982100 0.055023
0.000000 0.128647 0.055159
0.087320 0.156421 0.054907
0.133457 0.181232 0.054953
0.168789 0.187198 0.055027
0.196856 0.195037 0.054978
0.218300 0.209353 0.055005
0.222514 0.236756 0.055010
0.219566 0.269861 0.055013
0.207238 0.310875 0.055013
0.185688 0.358856 0.054992
0.166347 0.410225 0.054989
0.148516 0.475162 0.054995
0.146221 0.536565 0.055044
0.138691 0.632108 0.054891
0.139248 0.748173 0.055004
0.187155 0.831188 0.054999
0.239636 0.929010 0.055098
0.453432 0.977620 0.054993
1.000000 0.986784 0.055045
0.000000 0.160927 0.054956
0.032358 0.181888 0.054984
0.053380 0.207892 0.055082
0.071010 0.239573 0.055073
0.089996 0.267042 0.055096
0.106266 0.289355 0.054997
0.112241 0.313977 0.055053
0.111105 0.341936 0.055012
0.106529 0.374846 0.054999
0.101733 0.418068 0.055036
0.099600 0.472161 0.054986
0.099237 0.542217 0.054996
0.102949 0.615533 0.055057
0.111694 0.701609 0.054846
0.121868 0.824474 0.055070
0.181263 0.866588 0.054910
0.207957 0.946613 0.055097
0.458031 0.985482 0.054998
1.000000 0.991472 0.055092
0.000000 0.490820 0.054970
0.006814 0.484055 0.054971
0.014517 0.458338 0.055027
0.022383 0.453241 0.055024
0.030654 0.453687 0.055036
0.037600 0.472040 0.055032
0.044016 0.496880 0.055022
0.049147 0.535829 0.054971
0.054543 0.578823 0.054976
0.060202 0.622365 0.055086
0.065905 0.673703 0.055041
0.072906 0.727053 0.055060
0.082046 0.780560 0.055102
0.095656 0.826278 0.054845
0.112360 0.910543 0.054993
0.156482 0.912652 0.054943
0.181883 0.967635 0.054937
0.483927 0.993202 0.054990
1.000000 0.996392 0.054950
0.000000 1.000000 0.054864
0.003614 1.000000 0.054925
0.008558 1.000000 0.055066
0.013280 1.000000 0.055116
0.017960 1.000000 0.055129
0.021792 1.000000 0.055069
0.025725 1.000000 0.054932
0.029821 1.000000 0.054985
0.034947 1.000000 0.055000
0.041127 1.000000 0.055006
0.048612 1.000000 0.054879
0.057448 1.000000 0.054850
0.067730 1.000000 0.054854
0.080524 1.000000 0.055241
0.098382 1.000000 0.054897
0.128728 1.000000 0.055237
0.161026 1.000000 0.054920
0.490776 1.000000 0.054975
1.000000 1.000000 0.054881
0.000000 0.000000 0.109970
0.508741 0.000000 0.110013
0.839728 0.000000 0.110208
0.871589 0.000000 0.109396
0.901959 0.000000 0.110129
0.919283 0.000000 0.109602
0.931791 0.000000 0.110176
0.942265 0.000000 0.110218
0.951213 0.000000 0.110062
0.958736 0.000000 0.109979
0.964959 0.000000 0.110117
0.970102 0.000000 0.110025
0.974206 0.000000 0.109989
0.978134 0.000000 0.110065
0.981974 0.000000 0.110054
0.986707 0.000000 0.110078
0.991429 0.000000 0.110115