# vtk DataFile Version 2.0
Mesh for Fierro
ASCII 
DATASET UNSTRUCTURED_GRID

POINTS 2527 float
0.000000 0.000000 0.000000
0.161820 0.000000 0.000000
0.306061 0.000000 0.000000
0.428204 0.000000 0.000000
0.526511 0.000000 0.000000
0.602742 0.000000 0.000000
0.664918 0.000000 0.000000
0.717026 0.000000 0.000000
0.761132 0.000000 0.000000
0.797192 0.000000 0.000000
0.829155 0.000000 0.000000
0.857034 0.000000 0.000000
0.882281 0.000000 0.000000
0.904550 0.000000 0.000000
0.925781 0.000000 0.000000
0.945767 0.000000 0.000000
0.963988 0.000000 0.000000
0.982405 0.000000 0.000000
1.000000 0.000000 0.000000
0.000000 0.017634 0.000000
0.160986 0.019280 0.000000
0.304364 0.022548 0.000000
0.425705 0.028653 0.000000
0.523340 0.035676 0.000000
0.599391 0.044789 0.000000
0.661441 0.054722 0.000000
0.712531 0.066101 0.000000
0.755911 0.078640 0.000000
0.791316 0.091141 0.000000
0.822749 0.103130 0.000000
0.850672 0.115277 0.000000
0.875452 0.127219 0.000000
0.898494 0.137129 0.000000
0.920105 0.145535 0.000000
0.941120 0.152591 0.000000
0.961079 0.157096 0.000000
0.980720 0.160982 0.000000
1.000000 0.161786 0.000000
0.000000 0.035991 0.000000
0.157094 0.038920 0.000000
0.298374 0.045204 0.000000
0.417220 0.056980 0.000000
0.513458 0.070342 0.000000
0.588713 0.087856 0.000000
0.650134 0.106933 0.000000
0.700725 0.128765 0.000000
0.743048 0.152189 0.000000
0.778086 0.175408 0.000000
0.808669 0.199012 0.000000
0.836854 0.220926 0.000000
0.861973 0.243047 0.000000
0.886108 0.261588 0.000000
0.909292 0.277019 0.000000
0.932237 0.289790 0.000000
0.954796 0.298372 0.000000
0.977453 0.304365 0.000000
1.000000 0.306074 0.000000
0.000000 0.054242 0.000000
0.152590 0.058878 0.000000
0.289790 0.067764 0.000000
0.405468 0.084489 0.000000
0.499175 0.103755 0.000000
0.572177 0.128641 0.000000
0.631796 0.155713 0.000000
0.680126 0.185809 0.000000
0.720226 0.218719 0.000000
0.753806 0.249871 0.000000
0.782700 0.282301 0.000000
0.810827 0.312217 0.000000
0.836443 0.342455 0.000000
0.862491 0.367080 0.000000
0.888430 0.388048 0.000000
0.915510 0.405469 0.000000
0.943020 0.417220 0.000000
0.971346 0.425705 0.000000
1.000000 0.428197 0.000000
0.000000 0.074208 0.000000
0.145553 0.079897 0.000000
0.277015 0.090706 0.000000
0.388050 0.111571 0.000000
0.479482 0.136024 0.000000
0.549531 0.166946 0.000000
0.607012 0.200188 0.000000
0.653296 0.236997 0.000000
0.690873 0.276987 0.000000
0.723093 0.316042 0.000000
0.751770 0.353837 0.000000
0.779718 0.389349 0.000000
0.805171 0.425806 0.000000
0.834083 0.454920 0.000000
0.863975 0.479487 0.000000
0.896243 0.499177 0.000000
0.929659 0.513456 0.000000
0.964324 0.523341 0.000000
1.000000 0.526516 0.000000
0.000000 0.095457 0.000000
0.137130 0.101507 0.000000
0.261582 0.113891 0.000000
0.367076 0.137510 0.000000
0.454917 0.165917 0.000000
0.521563 0.201597 0.000000
0.577124 0.239098 0.000000
0.619992 0.281352 0.000000
0.653946 0.326388 0.000000
0.685028 0.369603 0.000000
0.712409 0.412874 0.000000
0.740092 0.451316 0.000000
0.766469 0.489395 0.000000
0.798403 0.521558 0.000000
0.833055 0.549528 0.000000
0.871360 0.572174 0.000000
0.912144 0.588714 0.000000
0.955210 0.599390 0.000000
1.000000 0.602738 0.000000
0.000000 0.117713 0.000000
0.127238 0.124542 0.000000
0.243053 0.138031 0.000000
0.342458 0.163557 0.000000
0.425802 0.194828 0.000000
0.489391 0.233532 0.000000
0.543689 0.275014 0.000000
0.582458 0.321136 0.000000
0.613358 0.370189 0.000000
0.643300 0.416264 0.000000
0.669026 0.462881 0.000000
0.697201 0.504340 0.000000
0.724985 0.543686 0.000000
0.760902 0.577128 0.000000
0.799812 0.607012 0.000000
0.844287 0.631797 0.000000
0.893067 0.650133 0.000000
0.945280 0.661441 0.000000
1.000000 0.664919 0.000000
0.000000 0.142984 0.000000
0.115286 0.149327 0.000000
0.220929 0.163146 0.000000
0.312219 0.189173 0.000000
0.389349 0.220282 0.000000
0.451316 0.259908 0.000000
0.504340 0.302799 0.000000
0.539855 0.349237 0.000000
0.568918 0.398438 0.000000
0.597222 0.447136 0.000000
0.622642 0.494953 0.000000
0.650762 0.539856 0.000000
0.678864 0.582457 0.000000
0.718648 0.619991 0.000000
0.763002 0.653297 0.000000
0.814191 0.680126 0.000000
0.871236 0.700726 0.000000
0.933898 0.712531 0.000000
1.000000 0.717028 0.000000
0.000000 0.170836 0.000000
0.103135 0.177253 0.000000
0.199016 0.191329 0.000000
0.282300 0.217301 0.000000
0.353839 0.248228 0.000000
0.412873 0.287592 0.000000
0.462880 0.330974 0.000000
0.494956 0.377360 0.000000
0.523205 0.425321 0.000000
0.549352 0.474459 0.000000
0.574682 0.523207 0.000000
0.601562 0.568917 0.000000
0.629810 0.613359 0.000000
0.673613 0.653947 0.000000
0.723013 0.690872 0.000000
0.781280 0.720227 0.000000
0.847811 0.743047 0.000000
0.921359 0.755911 0.000000
1.000000 0.761134 0.000000
0.000000 0.202805 0.000000
0.091135 0.208686 0.000000
0.175408 0.221913 0.000000
0.249869 0.246195 0.000000
0.316043 0.276906 0.000000
0.369603 0.314973 0.000000
0.416263 0.356700 0.000000
0.447138 0.402777 0.000000
0.474461 0.450650 0.000000
0.499998 0.499998 0.000000
0.525538 0.549353 0.000000
0.552862 0.597225 0.000000
0.583738 0.643299 0.000000
0.630397 0.685027 0.000000
0.683957 0.723094 0.000000
0.750131 0.753805 0.000000
0.824592 0.778088 0.000000
0.908860 0.791315 0.000000
1.000000 0.797198 0.000000
0.000000 0.238868 0.000000
0.078644 0.244089 0.000000
0.152189 0.256952 0.000000
0.218720 0.279773 0.000000
0.276987 0.309127 0.000000
0.326388 0.346053 0.000000
0.370188 0.386642 0.000000
0.398438 0.431082 0.000000
0.425316 0.476796 0.000000
0.450654 0.525540 0.000000
0.476795 0.574682 0.000000
0.505045 0.622638 0.000000
0.537118 0.669028 0.000000
0.587128 0.712408 0.000000
0.646160 0.751772 0.000000
0.717701 0.782698 0.000000
0.800983 0.808674 0.000000
0.896878 0.822745 0.000000
1.000000 0.829149 0.000000
0.000000 0.282974 0.000000
0.066099 0.287470 0.000000
0.128764 0.299275 0.000000
0.185810 0.319874 0.000000
0.236998 0.346704 0.000000
0.281351 0.380008 0.000000
0.321136 0.417542 0.000000
0.349237 0.460144 0.000000
0.377361 0.505044 0.000000
0.402773 0.552865 0.000000
0.431083 0.601561 0.000000
0.460144 0.650763 0.000000
0.495659 0.697201 0.000000
0.548685 0.740092 0.000000
0.610650 0.779720 0.000000
0.687782 0.810827 0.000000
0.779071 0.836854 0.000000
0.884724 0.850676 0.000000
1.000000 0.857042 0.000000
0.000000 0.335082 0.000000
0.054724 0.338559 0.000000
0.106937 0.349866 0.000000
0.155711 0.368203 0.000000
0.200186 0.392988 0.000000
0.239099 0.422874 0.000000
0.275015 0.456313 0.000000
0.302799 0.495660 0.000000
0.330972 0.537118 0.000000
0.356702 0.583735 0.000000
0.386642 0.629812 0.000000
0.417542 0.678863 0.000000
0.456309 0.724986 0.000000
0.510613 0.766468 0.000000
0.574192 0.805169 0.000000
0.657541 0.836446 0.000000
0.756940 0.861965 0.000000
0.872780 0.875457 0.000000
1.000000 0.882317 0.000000
0.000000 0.397258 0.000000
0.044789 0.400608 0.000000
0.087852 0.411285 0.000000
0.128643 0.427825 0.000000
0.166948 0.450468 0.000000
0.201598 0.478439 0.000000
0.233532 0.510607 0.000000
0.259908 0.548683 0.000000
0.287592 0.587129 0.000000
0.314973 0.630398 0.000000
0.346053 0.673612 0.000000
0.380008 0.718649 0.000000
0.422874 0.760901 0.000000
0.478439 0.798402 0.000000
0.545084 0.834085 0.000000
0.632926 0.862489 0.000000
0.738417 0.886112 0.000000
0.862872 0.898487 0.000000
1.000000 0.904457 0.000000
0.000000 0.473490 0.000000
0.035678 0.476661 0.000000
0.070348 0.486543 0.000000
0.103752 0.500825 0.000000
0.136020 0.520520 0.000000
0.165915 0.545078 0.000000
0.194834 0.574197 0.000000
0.220281 0.610652 0.000000
0.248227 0.646160 0.000000
0.276906 0.683957 0.000000
0.309128 0.723013 0.000000
0.346704 0.763002 0.000000
0.392989 0.799814 0.000000
0.450467 0.833051 0.000000
0.520519 0.863979 0.000000
0.611947 0.888426 0.000000
0.722989 0.909296 0.000000
0.854435 0.920099 0.000000
1.000000 0.925797 0.000000
0.000000 0.571798 0.000000
0.028653 0.574292 0.000000
0.056972 0.582779 0.000000
0.084493 0.594531 0.000000
0.111574 0.611948 0.000000
0.137511 0.632924 0.000000
0.163552 0.657545 0.000000
0.189172 0.687780 0.000000
0.217303 0.717702 0.000000
0.246195 0.750131 0.000000
0.279773 0.781280 0.000000
0.319874 0.814190 0.000000
0.368203 0.844288 0.000000
0.427825 0.871359 0.000000
0.500825 0.896247 0.000000
0.594531 0.915508 0.000000
0.710215 0.932241 0.000000
0.847399 0.941118 0.000000
1.000000 0.945758 0.000000
0.000000 0.693934 0.000000
0.022551 0.695641 0.000000
0.045213 0.701631 0.000000
0.067759 0.710213 0.000000
0.090701 0.722990 0.000000
0.113890 0.738413 0.000000
0.138032 0.756951 0.000000
0.163149 0.779073 0.000000
0.191327 0.800983 0.000000
0.221912 0.824592 0.000000
0.256952 0.847810 0.000000
0.299275 0.871237 0.000000
0.349866 0.893062 0.000000
0.411285 0.912147 0.000000
0.486543 0.929653 0.000000
0.582778 0.943028 0.000000
0.701631 0.954785 0.000000
0.842890 0.961082 0.000000
1.000000 0.964011 0.000000
0.000000 0.838195 0.000000
0.019269 0.838998 0.000000
0.038922 0.842893 0.000000
0.058881 0.847403 0.000000
0.079904 0.854435 0.000000
0.101510 0.862875 0.000000
0.124543 0.872763 0.000000
0.149325 0.884714 0.000000
0.177254 0.896866 0.000000
0.208687 0.908863 0.000000
0.244089 0.921357 0.000000
0.287469 0.933899 0.000000
0.338560 0.945278 0.000000
0.400608 0.955210 0.000000
0.476662 0.964323 0.000000
0.574293 0.971345 0.000000
0.695641 0.977453 0.000000
0.838998 0.980726 0.000000
1.000000 0.982423 0.000000
0.000000 1.000000 0.000000
0.017571 1.000000 0.000000
0.036007 1.000000 0.000000
0.054238 1.000000 0.000000
0.074223 1.000000 0.000000
0.095551 1.000000 0.000000
0.117636 1.000000 0.000000
0.142975 1.000000 0.000000
0.170844 1.000000 0.000000
0.202815 1.000000 0.000000
0.238861 1.000000 0.000000
0.282976 1.000000 0.000000
0.335077 1.000000 0.000000
0.397262 1.000000 0.000000
0.473485 1.000000 0.000000
0.571802 1.000000 0.000000
0.693925 1.000000 0.000000
0.838216 1.000000 0.000000
1.000000 1.000000 0.000000
0.000000 0.000000 0.054987
0.161806 0.000000 0.054999
0.306065 0.000000 0.055002
0.428202 0.000000 0.054999
0.526512 0.000000 0.055001
[...]
POINT_DATA 2527 
VECTORS pos float 
0.000000 0.000000 0.000000
0.161820 0.000000 0.000000
0.306061 0.000000 0.000000
0.428204 0.000000 0.000000
0.526511 0.000000 0.000000
0.602742 0.000000 0.000000
0.664918 0.000000 0.000000
0.717026 0.000000 0.000000
0.761132 0.000000 0.000000
0.797192 0.000000 0.000000
0.829155 0.000000 0.000000
0.857034 0.000000 0.000000
0.882281 0.000000 0.000000
0.904550 0.000000 0.000000
0.925781 0.000000 0.000000
0.945767 0.000000 0.000000
0.963988 0.000000 0.000000
0.982405 0.000000 0.000000
1.000000 0.000000 0.000000
0.000000 0.017634 0.000000
0.160986 0.019280 0.000000
0.304364 0.022548 0.000000
0.425705 0.028653 0.000000
0.523340 0.035676 0.000000
0.599391 0.044789 0.000000
0.661441 0.054722 0.000000
0.712531 0.066101 0.000000
0.755911 0.078640 0.000000
0.791316 0.091141 0.000000
0.822749 0.103130 0.000000
0.850672 0.115277 0.000000
0.875452 0.127219 0.000000
0.898494 0.137129 0.000000
0.920105 0.145535 0.000000
0.941120 0.152591 0.000000
0.961079 0.157096 0.000000
0.980720 0.160982 0.000000
1.000000 0.161786 0.000000
0.000000 0.035991 0.000000
0.157094 0.038920 0.000000
0.298374 0.045204 0.000000
0.417220 0.056980 0.000000
0.513458 0.070342 0.000000
0.588713 0.087856 0.000000
0.650134 0.106933 0.000000
0.700725 0.128765 0.000000
0.743048 0.152189 0.000000
0.778086 0.175408 0.000000
0.808669 0.199012 0.000000
0.836854 0.220926 0.000000
0.861973 0.243047 0.000000
0.886108 0.261588 0.000000
0.909292 0.277019 0.000000
0.932237 0.289790 0.000000
0.954796 0.298372 0.000000
0.977453 0.304365 0.000000
1.000000 0.306074 0.000000
0.000000 0.054242 0.000000
0.152590 0.058878 0.000000
0.289790 0.067764 0.000000
0.405468 0.084489 0.000000
0.499175 0.103755 0.000000
0.572177 0.128641 0.000000
0.631796 0.155713 0.000000
0.680126 0.185809 0.000000
0.720226 0.218719 0.000000
0.753806 0.249871 0.000000
0.782700 0.282301 0.000000
0.810827 0.312217 0.000000
0.836443 0.342455 0.000000
0.862491 0.367080 0.000000
0.888430 0.388048 0.000000
0.915510 0.405469 0.000000
0.943020 0.417220 0.000000
0.971346 0.425705 0.000000
1.000000 0.428197 0.000000
0.000000 0.074208 0.000000
0.145553 0.079897 0.000000
0.277015 0.090706 0.000000
0.388050 0.111571 0.000000
0.479482 0.136024 0.000000
0.549531 0.166946 0.000000
0.607012 0.200188 0.000000
0.653296 0.236997 0.000000
0.690873 0.276987 0.000000
0.723093 0.316042 0.000000
0.751770 0.353837 0.000000
0.779718 0.389349 0.000000
0.805171 0.425806 0.000000
0.834083 0.454920 0.000000
0.863975 0.479487 0.000000
0.896243 0.499177 0.000000
0.929659 0.513456 0.000000
0.964324 0.523341 0.000000
1.000000 0.526516 0.000000
0.000000 0.095457 0.000000
0.137130 0.101507 0.000000
0.261582 0.113891 0.000000
0.367076 0.137510 0.000000
0.454917 0.165917 0.000000
0.521563 0.201597 0.000000
0.577124 0.239098 0.000000
0.619992 0.281352 0.000000
0.653946 0.326388 0.000000
0.685028 0.369603 0.000000
0.712409 0.412874 0.000000
0.740092 0.451316 0.000000
0.766469 0.489395 0.000000
0.798403 0.521558 0.000000
0.833055 0.549528 0.000000
0.871360 0.572174 0.000000
0.912144 0.588714 0.000000
0.955210 0.599390 0.000000
1.000000 0.602738 0.000000
0.000000 0.117713 0.000000
0.127238 0.124542 0.000000
0.243053 0.138031 0.000000
0.342458 0.163557 0.000000
0.425802 0.194828 0.000000
0.489391 0.233532 0.000000
0.543689 0.275014 0.000000
0.582458 0.321136 0.000000
0.613358 0.370189 0.000000
0.643300 0.416264 0.000000
0.669026 0.462881 0.000000
0.697201 0.504340 0.000000
0.724985 0.543686 0.000000
0.760902 0.577128 0.000000
0.799812 0.607012 0.000000
0.844287 0.631797 0.000000
0.893067 0.650133 0.000000
0.945280 0.661441 0.000000
1.000000 0.664919 0.000000
0.000000 0.142984 0.000000
0.115286 0.149327 0.000000
0.220929 0.163146 0.000000
0.312219 0.189173 0.000000
0.389349 0.220282 0.000000
0.451316 0.259908 0.000000
0.504340 0.302799 0.000000
0.539855 0.349237 0.000000
0.568918 0.398438 0.000000
0.597222 0.447136 0.000000
0.622642 0.494953 0.000000
0.650762 0.539856 0.000000
0.678864 0.582457 0.000000
0.718648 0.619991 0.000000
0.763002 0.653297 0.000000
0.814191 0.680126 0.000000
0.871236 0.700726 0.000000
0.933898 0.712531 0.000000
1.000000 0.717028 0.000000
0.000000 0.170836 0.000000
0.103135 0.177253 0.000000
0.199016 0.191329 0.000000
0.282300 0.217301 0.000000
0.353839 0.248228 0.000000
0.412873 0.287592 0.000000
0.462880 0.330974 0.000000
0.494956 0.377360 0.000000
0.523205 0.425321 0.000000
0.549352 0.474459 0.000000
0.574682 0.523207 0.000000
0.601562 0.568917 0.000000
0.629810 0.613359 0.000000
0.673613 0.653947 0.000000
0.723013 0.690872 0.000000
0.781280 0.720227 0.000000
0.847811 0.743047 0.000000
0.921359 0.755911 0.000000
1.000000 0.761134 0.000000
0.000000 0.202805 0.000000
0.091135 0.208686 0.000000
0.175408 0.221913 0.000000
0.249869 0.246195 0.000000
0.316043 0.276906 0.000000
0.369603 0.314973 0.000000
0.416263 0.356700 0.000000
0.447138 0.402777 0.000000
0.474461 0.450650 0.000000
0.499998 0.499998 0.000000
0.525538 0.549353 0.000000
0.552862 0.597225 0.000000
0.583738 0.643299 0.000000
0.630397 0.685027 0.000000
0.683957 0.723094 0.000000
0.750131 0.753805 0.000000
0.824592 0.778088 0.000000
0.908860 0.791315 0.000000
1.000000 0.797198 0.000000
0.000000 0.238868 0.000000
0.078644 0.244089 0.000000
0.152189 0.256952 0.000000
0.218720 0.279773 0.000000
0.276987 0.309127 0.000000
0.326388 0.346053 0.000000
0.370188 0.386642 0.000000
0.398438 0.431082 0.000000
0.425316 0.476796 0.000000
0.450654 0.525540 0.000000
0.476795 0.574682 0.000000
0.505045 0.622638 0.000000
0.537118 0.669028 0.000000
0.587128 0.712408 0.000000
0.646160 0.751772 0.000000
0.717701 0.782698 0.000000
0.800983 0.808674 0.000000
0.896878 0.822745 0.000000
1.000000 0.829149 0.000000
0.000000 0.282974 0.000000
0.066099 0.287470 0.000000
0.128764 0.299275 0.000000
0.185810 0.319874 0.000000
0.236998 0.346704 0.000000
0.281351 0.380008 0.000000
0.321136 0.417542 0.000000
0.349237 0.460144 0.000000
0.377361 0.505044 0.000000
0.402773 0.552865 0.000000
0.431083 0.601561 0.000000
0.460144 0.650763 0.000000
0.495659 0.697201 0.000000
0.548685 0.740092 0.000000
0.610650 0.779720 0.000000
0.687782 0.810827 0.000000
0.779071 0.836854 0.000000
0.884724 0.850676 0.000000
1.000000 0.857042 0.000000
0.000000 0.335082 0.000000
0.054724 0.338559 0.000000
0.106937 0.349866 0.000000
0.155711 0.368203 0.000000
0.200186 0.392988 0.000000
0.239099 0.422874 0.000000
0.275015 0.456313 0.000000
0.302799 0.495660 0.000000
0.330972 0.537118 0.000000
0.356702 0.583735 0.000000
0.386642 0.629812 0.000000
0.417542 0.678863 0.000000
0.456309 0.724986 0.000000
0.510613 0.766468 0.000000
0.574192 0.805169 0.000000
0.657541 0.836446 0.000000
0.756940 0.861965 0.000000
0.872780 0.875457 0.000000
1.000000 0.882317 0.000000
0.000000 0.397258 0.000000
0.044789 0.400608 0.000000
0.087852 0.411285 0.000000
0.128643 0.427825 0.000000
0.166948 0.450468 0.000000
0.201598 0.478439 0.000000
0.233532 0.510607 0.000000
0.259908 0.548683 0.000000
0.287592 0.587129 0.000000
0.314973 0.630398 0.000000
0.346053 0.673612 0.000000
0.380008 0.718649 0.000000
0.422874 0.760901 0.000000
0.478439 0.798402 0.000000
0.545084 0.834085 0.000000
0.632926 0.862489 0.000000
0.738417 0.886112 0.000000
0.862872 0.898487 0.000000
1.000000 0.904457 0.000000
0.000000 0.473490 0.000000
0.035678 0.476661 0.000000
0.070348 0.486543 0.000000
0.103752 0.500825 0.000000
0.136020 0.520520 0.000000
0.165915 0.545078 0.000000
0.194834 0.574197 0.000000
0.220281 0.610652 0.000000
0.248227 0.646160 0.000000
0.276906 0.683957 0.000000
0.309128 0.723013 0.000000
0.346704 0.763002 0.000000
0.392989 0.799814 0.000000
0.450467 0.833051 0.000000
0.520519 0.863979 0.000000
0.611947 0.888426 0.000000
0.722989 0.909296 0.000000
0.854435 0.920099 0.000000
1.000000 0.925797 0.000000
0.000000 0.571798 0.000000
0.028653 0.574292 0.000000
0.056972 0.582779 0.000000
0.084493 0.594531 0.000000
0.111574 0.611948 0.000000
0.137511 0.632924 0.000000
0.163552 0.657545 0.000000
0.189172 0.687780 0.000000
0.217303 0.717702 0.000000
0.246195 0.750131 0.000000
0.279773 0.781280 0.000000
0.319874 0.814190 0.000000
0.368203 0.844288 0.000000
0.427825 0.871359 0.000000
0.500825 0.896247 0.000000
0.594531 0.915508 0.000000
0.710215 0.932241 0.000000
0.847399 0.941118 0.000000
1.000000 0.945758 0.000000
0.000000 0.693934 0.000000
0.022551 0.695641 0.000000
0.045213 0.701631 0.000000
0.067759 0.710213 0.000000
0.090701 0.722990 0.000000
0.113890 0.738413 0.000000
0.138032 0.756951 0.000000
0.163149 0.779073 0.000000
0.191327 0.800983 0.000000
0.221912 0.824592 0.000000
0.256952 0.847810 0.000000
0.299275 0.871237 0.000000
0.349866 0.893062 0.000000
0.411285 0.912147 0.000000
0.486543 0.929653 0.000000
0.582778 0.943028 0.000000
0.701631 0.954785 0.000000
0.842890 0.961082 0.000000
1.000000 0.964011 0.000000
0.000000 0.838195 0.000000
0.019269 0.838998 0.000000
0.038922 0.842893 0.000000
0.058881 0.847403 0.000000
0.079904 0.854435 0.000000
0.101510 0.862875 0.000000
0.124543 0.872763 0.000000
0.149325 0.884714 0.000000
0.177254 0.896866 0.000000
0.208687 0.908863 0.000000
0.244089 0.921357 0.000000
0.287469 0.933899 0.000000
0.338560 0.945278 0.000000
0.400608 0.955210 0.000000
0.476662 0.964323 0.000000
0.574293 0.971345 0.000000
0.695641 0.977453 0.000000
0.838998 0.980726 0.000000
1.000000 0.982423 0.000000
0.000000 1.000000 0.000000
0.017571 1.000000 0.000000
0.036007 1.000000 0.000000
0.054238 1.000000 0.000000
0.074223 1.000000 0.000000
0.095551 1.000000 0.000000
0.117636 1.000000 0.000000
0.142975 1.000000 0.000000
0.170844 1.000000 0.000000
0.202815 1.000000 0.000000
0.238861 1.000000 0.000000
0.282976 1.000000 0.000000
0.335077 1.000000 0.000000
0.397262 1.000000 0.000000
0.473485 1.000000 0.000000
0.571802 1.000000 0.000000
0.693925 1.000000 0.000000
0.838216 1.000000 0.000000
1.000000 1.000000 0.000000
0.000000 0.000000 0.054987
0.161806 0.000000 0.054999
0.306065 0.000000 0.055002
0.428202 0.000000 0.054999
0.526512 0.000000 0.055001
0.602740 0.000000 0.054999
0.664921 0.000000 0.055002
0.717024 0.000000 0.054998
0.761138 0.000000 0.055002
0.797191 0.000000 0.055000
0.829158 0.000000 0.054996
0.857014 0.000000 0.054987
0.882327 0.000000 0.055011
0.904467 0.000000 0.055024
0.925713 0.000000 0.054989
0.945822 0.000000 0.054978
0.963996 0.000000 0.054998
0.982434 0.000000 0.055011
1.000000 0.000000 0.054995
0.000000 0.017539 0.055007
0.160987 0.019278 0.055001
0.304364 0.022546 0.054999
0.425705 0.028654 0.055001
0.523340 0.035676 0.055000
0.599391 0.044791 0.055000
0.661442 0.054720 0.055000
0.712531 0.066101 0.055000
0.755911 0.078640 0.055000
0.791316 0.091140 0.055000
0.822748 0.103124 0.055001
0.850674 0.115276 0.055000
0.875446 0.127243 0.055000
0.898498 0.137135 0.055001
0.920085 0.145568 0.055000
0.941134 0.152595 0.054998
0.961069 0.157100 0.055001
0.980722 0.160988 0.055001
1.000000 0.161826 0.055000
0.000000 0.035998 0.055001
0.157103 0.038931 0.055001
0.298368 0.045199 0.055000
0.417222 0.056982 0.055000
0.513456 0.070339 0.055000
0.588714 0.087857 0.055000
0.650132 0.106932 0.055000
0.700726 0.128765 0.055000
0.743047 0.152188 0.055000
0.778087 0.175409 0.055000
0.808672 0.199021 0.055001
0.836853 0.220919 0.055000
0.861969 0.243054 0.054998
0.886107 0.261580 0.054998
0.909303 0.277009 0.055000
0.932232 0.289785 0.055002
0.954799 0.298370 0.055000
0.977453 0.304363 0.054999
1.000000 0.306058 0.055001
0.000000 0.054168 0.054980
0.152600 0.058865 0.054999
0.289783 0.067770 0.055001
0.405471 0.084486 0.054999
0.499176 0.103760 0.055000
0.572176 0.128639 0.054999
0.631796 0.155714 0.055001
0.680126 0.185810 0.055000
0.720227 0.218719 0.055000
0.753806 0.249871 0.055000
0.782700 0.282296 0.054999
0.810826 0.312215 0.054999
0.836444 0.342462 0.055000
0.862491 0.367076 0.055001
0.888424 0.388054 0.055000
0.915513 0.405469 0.054999
0.943019 0.417222 0.055000
0.971346 0.425706 0.055001
1.000000 0.428205 0.055000
0.000000 0.074317 0.054990
0.145561 0.079914 0.055001
0.277011 0.090698 0.055000
0.388052 0.111575 0.055000
0.479483 0.136020 0.055000
0.549532 0.166947 0.055000
0.607011 0.200186 0.055000
0.653296 0.236997 0.055000
0.690872 0.276987 0.055000
0.723094 0.316041 0.055000
0.751771 0.353840 0.055000
0.779719 0.389351 0.055001
0.805171 0.425803 0.055000
0.834082 0.454913 0.055000
0.863981 0.479481 0.055000
0.896242 0.499174 0.055001
0.929660 0.513457 0.055000
0.964323 0.523339 0.054999
1.000000 0.526510 0.055000
0.000000 0.095533 0.055016
0.137136 0.101502 0.055000
0.261582 0.113895 0.055000
0.367079 0.137508 0.055001
0.454913 0.165918 0.055000
0.521561 0.201598 0.055000
0.577125 0.239098 0.055000
0.619992 0.281352 0.055000
0.653947 0.326387 0.055000
0.685027 0.369604 0.055000
0.712409 0.412872 0.055000
0.740092 0.451315 0.054999
0.766470 0.489392 0.055000
0.798402 0.521563 0.055000
0.833053 0.549534 0.055001
0.871360 0.572177 0.054999
0.912143 0.588714 0.055000
0.955209 0.599391 0.055001
1.000000 0.602743 0.055000
0.000000 0.117663 0.055011
0.127232 0.124555 0.055001
0.243045 0.138026 0.055000
0.342463 0.163559 0.055001
0.425804 0.194827 0.055000
0.489392 0.233531 0.055000
0.543687 0.275014 0.055000
0.582457 0.321136 0.055000
0.613358 0.370189 0.055000
0.643299 0.416264 0.055000
0.669027 0.462882 0.055000
0.697201 0.504340 0.055000
0.724984 0.543687 0.055000
0.760902 0.577125 0.054999
0.799814 0.607010 0.054999
0.844286 0.631796 0.055000
0.893068 0.650133 0.055001
0.945280 0.661441 0.054999
1.000000 0.664914 0.055000
0.000000 0.142981 0.054990
0.115274 0.149327 0.054999
0.220922 0.163147 0.055001
0.312216 0.189173 0.055000
0.389350 0.220282 0.055000
0.451316 0.259908 0.055000
0.504341 0.302799 0.055000
0.539855 0.349237 0.055000
0.568918 0.398439 0.055000
0.597225 0.447135 0.055000
0.622641 0.494953 0.055000
0.650762 0.539856 0.055000
0.678864 0.582457 0.055000
0.718648 0.619992 0.055000
0.763003 0.653296 0.055000
0.814190 0.680125 0.055000
0.871235 0.700726 0.055000
0.933897 0.712531 0.055000
1.000000 0.717030 0.055000
0.000000 0.170839 0.054994
0.103124 0.177251 0.054998
0.199016 0.191329 0.055001
0.282299 0.217300 0.055000
0.353838 0.248229 0.055000
0.412874 0.287591 0.055000
0.462880 0.330974 0.055000
0.494955 0.377359 0.055000
0.523205 0.425314 0.055000
0.549355 0.474459 0.055000
0.574686 0.523205 0.055000
0.601562 0.568917 0.055000
0.629810 0.613358 0.055000
0.673613 0.653947 0.055000
0.723013 0.690872 0.055000
0.781281 0.720227 0.055000
0.847812 0.743047 0.055000
0.921361 0.755912 0.055000
1.000000 0.761128 0.055000
0.000000 0.202811 0.055002
0.091142 0.208684 0.055001
0.175408 0.221913 0.055000
0.249871 0.246194 0.055000
0.316041 0.276907 0.055000
0.369604 0.314973 0.055000
0.416263 0.356702 0.055000
0.447137 0.402774 0.055000
0.474461 0.450648 0.055000
0.499997 0.499997 0.055000
0.525540 0.549356 0.055000
0.552864 0.597226 0.055000
0.583737 0.643298 0.055000
0.630397 0.685027 0.055000
0.683958 0.723094 0.055000
0.750129 0.753805 0.055000
0.824591 0.778088 0.055000
0.908858 0.791316 0.055000
1.000000 0.797208 0.054997
0.000000 0.238862 0.055000
0.078639 0.244089 0.055000
0.152188 0.256952 0.055000
0.218719 0.279773 0.055000
0.276987 0.309127 0.055000
0.326387 0.346053 0.055000
0.370189 0.386642 0.055000
0.398438 0.431082 0.055000
0.425313 0.476796 0.055000
0.450649 0.525539 0.055000
0.476795 0.574687 0.055000
0.505046 0.622641 0.055000
0.537118 0.669027 0.055000
0.587128 0.712408 0.055000
0.646160 0.751772 0.055000
0.717704 0.782699 0.055000
0.800980 0.808674 0.055000
0.896882 0.822747 0.054999
1.000000 0.829142 0.055005
0.000000 0.282977 0.054999
0.066102 0.287469 0.055000
0.128765 0.299274 0.055000
0.185810 0.319874 0.055000
0.236997 0.346704 0.055000
0.281351 0.380008 0.055000
0.321136 0.417543 0.055000
0.349238 0.460144 0.055000
0.377359 0.505044 0.055000
0.402772 0.552865 0.055000
0.431083 0.601561 0.055000
0.460143 0.650763 0.055000
0.495660 0.697201 0.055000
0.548685 0.740092 0.055000
0.610650 0.779719 0.054999
0.687784 0.810827 0.055000
0.779080 0.836852 0.055000
0.884726 0.850675 0.054999
1.000000 0.857042 0.055001
0.000000 0.335082 0.055001
0.054721 0.338558 0.055001
0.106938 0.349864 0.055000
0.155709 0.368201 0.055000
0.200185 0.392988 0.055001
0.239097 0.422874 0.055000
0.275019 0.456314 0.055000
0.302798 0.495660 0.055000
0.330973 0.537118 0.054999
0.356702 0.583737 0.055000
0.386642 0.629811 0.055000
0.417542 0.678864 0.055000
0.456314 0.724982 0.054999
0.510606 0.766473 0.055000
0.574198 0.805165 0.055000
0.657546 0.836451 0.055000
0.756948 0.861961 0.055002
0.872770 0.875459 0.054999
1.000000 0.882275 0.054998
0.000000 0.397256 0.055000
0.044790 0.400610 0.054999
0.087850 0.411289 0.055001
0.128644 0.427826 0.055000
0.166949 0.450467 0.055000
0.201600 0.478438 0.055000
0.233527 0.510605 0.055000
0.259909 0.548685 0.055000
0.287592 0.587129 0.055000
0.314973 0.630397 0.055000
0.346053 0.673612 0.055000
0.380009 0.718649 0.055000
0.422872 0.760902 0.055000
0.478439 0.798401 0.055000
0.545076 0.834083 0.055000
0.632928 0.862490 0.055000
0.738407 0.886111 0.055000
0.862885 0.898491 0.055001
1.000000 0.904509 0.055000
0.000000 0.473495 0.055001
0.035676 0.476658 0.055001
0.070349 0.486540 0.055000
0.103753 0.500821 0.055000
0.136017 0.520519 0.055000
0.165916 0.545078 0.055000
0.194836 0.574200 0.055000
0.220281 0.610650 0.055000
0.248228 0.646159 0.055000
0.276906 0.683958 0.055000
0.309128 0.723013 0.055000
0.346704 0.763002 0.055000
0.392989 0.799815 0.055000
0.450468 0.833051 0.055000
0.520518 0.863982 0.055000
0.611950 0.888424 0.055000
0.722985 0.909300 0.055000
0.854450 0.920095 0.055000
1.000000 0.925795 0.055001
0.000000 0.571793 0.054999
0.028656 0.574295 0.054999
0.056968 0.582783 0.055001
0.084493 0.594536 0.055000
0.111576 0.611950 0.055000
0.137511 0.632930 0.055000
0.163548 0.657546 0.054999
0.189174 0.687783 0.055000
0.217302 0.717704 0.055000
0.246195 0.750129 0.055000
0.279773 0.781281 0.055000
0.319874 0.814190 0.055000
0.368202 0.844290 0.055000
0.427826 0.871358 0.055000
0.500822 0.896247 0.055001
0.594534 0.915507 0.055000
0.710206 0.932243 0.055001
0.847416 0.941117 0.054999
1.000000 0.945806 0.054998
0.000000 0.693946 0.055002
0.022544 0.695635 0.055001
0.045221 0.701620 0.054999
0.067755 0.710203 0.055001
0.090699 0.722984 0.055000
0.113887 0.738410 0.055000
0.138041 0.756945 0.055003
0.163149 0.779078 0.055001
0.191327 0.800979 0.055000
0.221912 0.824592 0.054999
0.256953 0.847811 0.055000
0.299274 0.871236 0.055000
0.349865 0.893062 0.055000
0.411287 0.912148 0.055000
0.486541 0.929652 0.055000
0.582782 0.943030 0.055000
0.701624 0.954781 0.054999
0.842911 0.961094 0.055002
1.000000 0.964026 0.055013
0.000000 0.838162 0.054997
0.019285 0.839016 0.055000
0.038905 0.842919 0.055002
0.058884 0.847426 0.054998
0.079904 0.854448 0.055001
0.101508 0.862885 0.055001
0.124541 0.872748 0.055000
0.149325 0.884724 0.054998
0.177253 0.896880 0.054997
0.208685 0.908860 0.055001
0.244088 0.921359 0.055000
0.287469 0.933898 0.055000
0.338558 0.945279 0.055001
0.400610 0.955209 0.054999
0.476658 0.964324 0.055001
0.574295 0.971343 0.054999
0.695634 0.977456 0.055001
0.839016 0.980715 0.055000
1.000000 0.982346 0.054994
0.000000 1.000000 0.054978
0.017672 1.000000 0.054991
0.035978 1.000000 0.055022
0.054207 1.000000 0.054993
0.074178 1.000000 0.055003
0.095492 1.000000 0.054998
0.117724 1.000000 0.054996
0.142957 1.000000 0.055001
0.170860 1.000000 0.055000
0.202797 1.000000 0.055001
0.238871 1.000000 0.054998
0.282970 1.000000 0.055001
0.335085 1.000000 0.054998
0.397258 1.000000 0.055001
0.473491 1.000000 0.054999
0.571797 1.000000 0.055000
0.693941 1.000000 0.055000
0.838177 1.000000 0.054999
1.000000 1.000000 0.054991
0.000000 0.000000 0.109992
0.161817 0.000000 0.110000
0.306061 0.000000 0.110000
0.428203 0.000000 0.110000
0.526508 0.000000 0.110000
0.602743 0.000000 0.109999
0.664914 0.000000 0.110000
0.717031 0.000000 0.110000
0.761128 0.000000 0.110000
0.797201 0.000000 0.109998
0.829142 0.000000 0.110007
0.857045 0.000000 0.110007
0.882275 0.000000 0.110003
0.904526 0.000000 0.109984
0.925806 0.000000 0.109998
0.945805 0.000000 0.110000
0.964011 0.000000 0.109983