# vtk DataFile Version 2.0
Mesh for Fierro
ASCII 
DATASET UNSTRUCTURED_GRID

POINTS 2527 float
0.000000 0.000000 0.000000
0.516969 0.000000 0.000000
0.887185 0.000000 0.000000
0.920033 0.000000 0.000000
0.934954 0.000000 0.000000
0.945136 0.000000 0.000000
0.953204 0.000000 0.000000
0.960228 0.000000 0.000000
0.966342 0.000000 0.000000
0.971787 0.000000 0.000000
0.976290 0.000000 0.000000
0.980024 0.000000 0.000000
0.983016 0.000000 0.000000
0.985521 0.000000 0.000000
0.987355 0.000000 0.000000
0.989692 0.000000 0.000000
0.992789 0.000000 0.000000
0.997204 0.000000 0.000000
1.000000 0.000000 0.000000
0.000000 0.002841 0.000000
0.563155 0.006742 0.000000
0.884549 0.038305 0.000000
0.883446 0.128145 0.000000
0.909667 0.152293 0.000000
0.919967 0.234366 0.000000
0.928185 0.295019 0.000000
0.933454 0.352474 0.000000
0.937037 0.415267 0.000000
0.940393 0.474048 0.000000
0.944474 0.524229 0.000000
0.949240 0.569681 0.000000
0.954905 0.605054 0.000000
0.961534 0.630303 0.000000
0.968323 0.646618 0.000000
0.976608 0.635856 0.000000
0.985262 0.609224 0.000000
0.993130 0.563429 0.000000
1.000000 0.515536 0.000000
0.000000 0.007171 0.000000
0.608956 0.014703 0.000000
0.870283 0.070182 0.000000
0.841345 0.183017 0.000000
0.891312 0.236955 0.000000
0.902893 0.384510 0.000000
0.898921 0.503259 0.000000
0.900590 0.571782 0.000000
0.897696 0.639443 0.000000
0.890040 0.683853 0.000000
0.881343 0.711300 0.000000
0.877780 0.730453 0.000000
0.884071 0.749792 0.000000
0.893582 0.774299 0.000000
0.906355 0.804231 0.000000
0.916450 0.840710 0.000000
0.929457 0.870148 0.000000
0.961308 0.885023 0.000000
1.000000 0.886851 0.000000
0.000000 0.010215 0.000000
0.636435 0.023412 0.000000
0.840482 0.083549 0.000000
0.830075 0.215316 0.000000
0.882675 0.331491 0.000000
0.872372 0.469958 0.000000
0.845492 0.563801 0.000000
0.840810 0.614737 0.000000
0.812437 0.664280 0.000000
0.777119 0.705435 0.000000
0.743602 0.746545 0.000000
0.722998 0.784021 0.000000
0.715885 0.809690 0.000000
0.715917 0.827398 0.000000
0.745087 0.830976 0.000000
0.785304 0.829882 0.000000
0.817549 0.841763 0.000000
0.872503 0.884367 0.000000
1.000000 0.921812 0.000000
0.000000 0.012497 0.000000
0.646886 0.031718 0.000000
0.804141 0.093615 0.000000
0.831081 0.255135 0.000000
0.855914 0.395237 0.000000
0.838167 0.497945 0.000000
0.788139 0.596650 0.000000
0.764283 0.652452 0.000000
0.709537 0.705928 0.000000
0.664822 0.739512 0.000000
0.634425 0.758366 0.000000
0.611315 0.770258 0.000000
0.596778 0.787484 0.000000
0.589479 0.815704 0.000000
0.604875 0.856004 0.000000
0.668948 0.882381 0.000000
0.763443 0.890677 0.000000
0.847689 0.912292 0.000000
1.000000 0.942303 0.000000
0.000000 0.014324 0.000000
0.629933 0.038461 0.000000
0.774105 0.106395 0.000000
0.827350 0.283645 0.000000
0.815945 0.410240 0.000000
0.808984 0.509350 0.000000
0.741243 0.593960 0.000000
0.708821 0.649085 0.000000
0.659413 0.679077 0.000000
0.602347 0.693146 0.000000
0.551481 0.711982 0.000000
0.505245 0.740698 0.000000
0.489216 0.775763 0.000000
0.490559 0.809168 0.000000
0.502177 0.838131 0.000000
0.529797 0.872529 0.000000
0.614986 0.902173 0.000000
0.763914 0.919602 0.000000
1.000000 0.947098 0.000000
0.000000 0.016786 0.000000
0.604803 0.045111 0.000000
0.749741 0.116134 0.000000
0.809814 0.284093 0.000000
0.787531 0.403396 0.000000
0.775930 0.510843 0.000000
0.704629 0.576397 0.000000
0.653212 0.628541 0.000000
0.580679 0.642025 0.000000
0.525907 0.660262 0.000000
0.482577 0.673888 0.000000
0.452659 0.690451 0.000000
0.423464 0.704652 0.000000
0.405951 0.741299 0.000000
0.403401 0.788390 0.000000
0.436106 0.845652 0.000000
0.497033 0.899164 0.000000
0.706025 0.927246 0.000000
1.000000 0.952038 0.000000
0.000000 0.019770 0.000000
0.569325 0.050738 0.000000
0.730394 0.122320 0.000000
0.784059 0.276942 0.000000
0.770188 0.388740 0.000000
0.740768 0.494606 0.000000
0.690384 0.547274 0.000000
0.630643 0.590930 0.000000
0.571443 0.599402 0.000000
0.510880 0.608357 0.000000
0.457144 0.616201 0.000000
0.409145 0.630672 0.000000
0.371479 0.653225 0.000000
0.350894 0.708804 0.000000
0.347504 0.764341 0.000000
0.385338 0.840990 0.000000
0.427974 0.900850 0.000000
0.647588 0.932957 0.000000
1.000000 0.959159 0.000000
0.000000 0.023523 0.000000
0.523897 0.055453 0.000000
0.711209 0.118695 0.000000
0.746619 0.256320 0.000000
0.758343 0.365636 0.000000
0.711996 0.448473 0.000000
0.673950 0.517378 0.000000
0.616259 0.542843 0.000000
0.561729 0.548898 0.000000
0.503660 0.556270 0.000000
0.451071 0.561699 0.000000
0.400556 0.571466 0.000000
0.357969 0.580714 0.000000
0.320935 0.659383 0.000000
0.294006 0.709535 0.000000
0.335779 0.812474 0.000000
0.359959 0.897725 0.000000
0.584060 0.936823 0.000000
1.000000 0.965446 0.000000
0.000000 0.028020 0.000000
0.474066 0.059546 0.000000
0.683887 0.110119 0.000000
0.705543 0.222938 0.000000
0.739493 0.335176 0.000000
0.693157 0.397670 0.000000
0.660190 0.474101 0.000000
0.608273 0.489142 0.000000
0.556211 0.496343 0.000000
0.499961 0.499964 0.000000
0.443697 0.503652 0.000000
0.391657 0.510859 0.000000
0.339798 0.525942 0.000000
0.306891 0.602299 0.000000
0.260504 0.664809 0.000000
0.294452 0.776892 0.000000
0.315903 0.889979 0.000000
0.525437 0.940298 0.000000
1.000000 0.971120 0.000000
0.000000 0.033385 0.000000
0.415786 0.062930 0.000000
0.639733 0.102408 0.000000
0.664345 0.187661 0.000000
0.705961 0.290468 0.000000
0.679088 0.340502 0.000000
0.642118 0.419396 0.000000
0.599398 0.428571 0.000000
0.548942 0.438227 0.000000
0.496333 0.443800 0.000000
0.438292 0.451020 0.000000
0.383814 0.457157 0.000000
0.326062 0.482636 0.000000
0.287963 0.551546 0.000000
0.241693 0.634412 0.000000
0.253436 0.743852 0.000000
0.288643 0.881451 0.000000
0.475706 0.944486 0.000000
1.000000 0.975755 0.000000
0.000000 0.039513 0.000000
0.352579 0.066397 0.000000
0.572033 0.099364 0.000000
0.614803 0.159061 0.000000
0.652450 0.235737 0.000000
0.648988 0.291222 0.000000
0.628530 0.346839 0.000000
0.590956 0.369347 0.000000
0.542842 0.383862 0.000000
0.489108 0.391666 0.000000
0.428582 0.400565 0.000000
0.369304 0.409177 0.000000
0.309503 0.452775 0.000000
0.259298 0.505343 0.000000
0.229697 0.611523 0.000000
0.216057 0.723162 0.000000
0.269445 0.877963 0.000000
0.430779 0.949302 0.000000
1.000000 0.979617 0.000000
0.000000 0.046514 0.000000
0.295266 0.071474 0.000000
0.503304 0.100804 0.000000
0.563714 0.154175 0.000000
0.596588 0.211562 0.000000
0.594153 0.258709 0.000000
0.576374 0.295251 0.000000
0.547220 0.309685 0.000000
0.517410 0.326169 0.000000
0.473997 0.339756 0.000000
0.419354 0.357894 0.000000
0.346864 0.371519 0.000000
0.295244 0.423471 0.000000
0.224231 0.488879 0.000000
0.212494 0.596673 0.000000
0.190213 0.715962 0.000000
0.250140 0.884272 0.000000
0.395135 0.954957 0.000000
1.000000 0.982663 0.000000
0.000000 0.055320 0.000000
0.234494 0.079938 0.000000
0.384699 0.096885 0.000000
0.470396 0.127716 0.000000
0.498035 0.161947 0.000000
0.509199 0.190978 0.000000
0.511081 0.224212 0.000000
0.494633 0.259208 0.000000
0.448483 0.287921 0.000000
0.397712 0.306854 0.000000
0.340618 0.320928 0.000000
0.291212 0.350958 0.000000
0.258607 0.405874 0.000000
0.191057 0.490510 0.000000
0.184241 0.589722 0.000000
0.172582 0.716153 0.000000
0.225797 0.893882 0.000000
0.369755 0.961586 0.000000
1.000000 0.985159 0.000000
0.000000 0.066623 0.000000
0.152389 0.090776 0.000000
0.237293 0.108772 0.000000
0.331293 0.117333 0.000000
0.395173 0.144030 0.000000
0.410338 0.184173 0.000000
0.403359 0.212364 0.000000
0.388573 0.229752 0.000000
0.365701 0.241699 0.000000
0.335182 0.260460 0.000000
0.290543 0.294042 0.000000
0.235700 0.347506 0.000000
0.211491 0.403453 0.000000
0.161900 0.502016 0.000000
0.144148 0.604777 0.000000
0.168969 0.744815 0.000000
0.195671 0.906626 0.000000
0.353309 0.968345 0.000000
1.000000 0.987063 0.000000
0.000000 0.079691 0.000000
0.128053 0.116703 0.000000
0.183093 0.158686 0.000000
0.214808 0.170359 0.000000
0.255104 0.169007 0.000000
0.283812 0.172581 0.000000
0.284015 0.190361 0.000000
0.276799 0.216039 0.000000
0.256258 0.253342 0.000000
0.223230 0.294423 0.000000
0.187540 0.335812 0.000000
0.158980 0.385302 0.000000
0.154152 0.436333 0.000000
0.127602 0.529684 0.000000
0.117545 0.668602 0.000000
0.170116 0.785080 0.000000
0.159489 0.917026 0.000000
0.364220 0.976567 0.000000
1.000000 0.989492 0.000000
0.000000 0.112989 0.000000
0.038243 0.115404 0.000000
0.069772 0.129631 0.000000
0.083064 0.159502 0.000000
0.093498 0.195627 0.000000
0.106233 0.225817 0.000000
0.115764 0.249981 0.000000
0.122128 0.269457 0.000000
0.118655 0.288686 0.000000
0.110099 0.315952 0.000000
0.102189 0.360025 0.000000
0.099109 0.428008 0.000000
0.100580 0.496707 0.000000
0.096977 0.615250 0.000000
0.109044 0.762934 0.000000
0.158467 0.816966 0.000000
0.129744 0.929966 0.000000
0.390261 0.985177 0.000000
1.000000 0.992633 0.000000
0.000000 0.482885 0.000000
0.006850 0.435600 0.000000
0.014822 0.390199 0.000000
0.023462 0.364278 0.000000
0.031758 0.353004 0.000000
0.038481 0.369660 0.000000
0.045057 0.395166 0.000000
0.050707 0.430365 0.000000
0.055452 0.475266 0.000000
0.059518 0.525144 0.000000
0.062829 0.584044 0.000000
0.066377 0.647307 0.000000
0.071496 0.705711 0.000000
0.080028 0.765116 0.000000
0.090311 0.847656 0.000000
0.116416 0.872026 0.000000
0.115281 0.961647 0.000000
0.435603 0.993125 0.000000
1.000000 0.997077 0.000000
0.000000 1.000000 0.000000
0.002869 1.000000 0.000000
0.007178 1.000000 0.000000
0.010251 1.000000 0.000000
0.012585 1.000000 0.000000
0.014433 1.000000 0.000000
0.016885 1.000000 0.000000
0.019867 1.000000 0.000000
0.023624 1.000000 0.000000
0.028095 1.000000 0.000000
0.033573 1.000000 0.000000
0.039744 1.000000 0.000000
0.046770 1.000000 0.000000
0.054641 1.000000 0.000000
0.064565 1.000000 0.000000
0.079683 1.000000 0.000000
0.112962 1.000000 0.000000
0.483536 1.000000 0.000000
1.000000 1.000000 0.000000
0.000000 0.000000 0.054895
0.517564 0.000000 0.055401
0.883823 0.000000 0.055281
0.917462 0.000000 0.055622
0.934088 0.000000 0.054970
[...]
POINT_DATA 2527 
VECTORS pos float 
0.000000 0.000000 0.000000
0.516969 0.000000 0.000000
0.887185 0.000000 0.000000
0.920033 0.000000 0.000000
0.934954 0.000000 0.000000
0.945136 0.000000 0.000000
0.953204 0.000000 0.000000
0.960228 0.000000 0.000000
0.966342 0.000000 0.000000
0.971787 0.000000 0.000000
0.976290 0.000000 0.000000
0.980024 0.000000 0.000000
0.983016 0.000000 0.000000
0.985521 0.000000 0.000000
0.987355 0.000000 0.000000
0.989692 0.000000 0.000000
0.992789 0.000000 0.000000
0.997204 0.000000 0.000000
1.000000 0.000000 0.000000
0.000000 0.002841 0.000000
0.563155 0.006742 0.000000
0.884549 0.038305 0.000000
0.883446 0.128145 0.000000
0.909667 0.152293 0.000000
0.919967 0.234366 0.000000
0.928185 0.295019 0.000000
0.933454 0.352474 0.000000
0.937037 0.415267 0.000000
0.940393 0.474048 0.000000
0.944474 0.524229 0.000000
0.949240 0.569681 0.000000
0.954905 0.605054 0.000000
0.961534 0.630303 0.000000
0.968323 0.646618 0.000000
0.976608 0.635856 0.000000
0.985262 0.609224 0.000000
0.993130 0.563429 0.000000
1.000000 0.515536 0.000000
0.000000 0.007171 0.000000
0.608956 0.014703 0.000000
0.870283 0.070182 0.000000
0.841345 0.183017 0.000000
0.891312 0.236955 0.000000
0.902893 0.384510 0.000000
0.898921 0.503259 0.000000
0.900590 0.571782 0.000000
0.897696 0.639443 0.000000
0.890040 0.683853 0.000000
0.881343 0.711300 0.000000
0.877780 0.730453 0.000000
0.884071 0.749792 0.000000
0.893582 0.774299 0.000000
0.906355 0.804231 0.000000
0.916450 0.840710 0.000000
0.929457 0.870148 0.000000
0.961308 0.885023 0.000000
1.000000 0.886851 0.000000
0.000000 0.010215 0.000000
0.636435 0.023412 0.000000
0.840482 0.083549 0.000000
0.830075 0.215316 0.000000
0.882675 0.331491 0.000000
0.872372 0.469958 0.000000
0.845492 0.563801 0.000000
0.840810 0.614737 0.000000
0.812437 0.664280 0.000000
0.777119 0.705435 0.000000
0.743602 0.746545 0.000000
0.722998 0.784021 0.000000
0.715885 0.809690 0.000000
0.715917 0.827398 0.000000
0.745087 0.830976 0.000000
0.785304 0.829882 0.000000
0.817549 0.841763 0.000000
0.872503 0.884367 0.000000
1.000000 0.921812 0.000000
0.000000 0.012497 0.000000
0.646886 0.031718 0.000000
0.804141 0.093615 0.000000
0.831081 0.255135 0.000000
0.855914 0.395237 0.000000
0.838167 0.497945 0.000000
0.788139 0.596650 0.000000
0.764283 0.652452 0.000000
0.709537 0.705928 0.000000
0.664822 0.739512 0.000000
0.634425 0.758366 0.000000
0.611315 0.770258 0.000000
0.596778 0.787484 0.000000
0.589479 0.815704 0.000000
0.604875 0.856004 0.000000
0.668948 0.882381 0.000000
0.763443 0.890677 0.000000
0.847689 0.912292 0.000000
1.000000 0.942303 0.000000
0.000000 0.014324 0.000000
0.629933 0.038461 0.000000
0.774105 0.106395 0.000000
0.827350 0.283645 0.000000
0.815945 0.410240 0.000000
0.808984 0.509350 0.000000
0.741243 0.593960 0.000000
0.708821 0.649085 0.000000
0.659413 0.679077 0.000000
0.602347 0.693146 0.000000
0.551481 0.711982 0.000000
0.505245 0.740698 0.000000
0.489216 0.775763 0.000000
0.490559 0.809168 0.000000
0.502177 0.838131 0.000000
0.529797 0.872529 0.000000
0.614986 0.902173 0.000000
0.763914 0.919602 0.000000
1.000000 0.947098 0.000000
0.000000 0.016786 0.000000
0.604803 0.045111 0.000000
0.749741 0.116134 0.000000
0.809814 0.284093 0.000000
0.787531 0.403396 0.000000
0.775930 0.510843 0.000000
0.704629 0.576397 0.000000
0.653212 0.628541 0.000000
0.580679 0.642025 0.000000
0.525907 0.660262 0.000000
0.482577 0.673888 0.000000
0.452659 0.690451 0.000000
0.423464 0.704652 0.000000
0.405951 0.741299 0.000000
0.403401 0.788390 0.000000
0.436106 0.845652 0.000000
0.497033 0.899164 0.000000
0.706025 0.927246 0.000000
1.000000 0.952038 0.000000
0.000000 0.019770 0.000000
0.569325 0.050738 0.000000
0.730394 0.122320 0.000000
0.784059 0.276942 0.000000
0.770188 0.388740 0.000000
0.740768 0.494606 0.000000
0.690384 0.547274 0.000000
0.630643 0.590930 0.000000
0.571443 0.599402 0.000000
0.510880 0.608357 0.000000
0.457144 0.616201 0.000000
0.409145 0.630672 0.000000
0.371479 0.653225 0.000000
0.350894 0.708804 0.000000
0.347504 0.764341 0.000000
0.385338 0.840990 0.000000
0.427974 0.900850 0.000000
0.647588 0.932957 0.000000
1.000000 0.959159 0.000000
0.000000 0.023523 0.000000
0.523897 0.055453 0.000000
0.711209 0.118695 0.000000
0.746619 0.256320 0.000000
0.758343 0.365636 0.000000
0.711996 0.448473 0.000000
0.673950 0.517378 0.000000
0.616259 0.542843 0.000000
0.561729 0.548898 0.000000
0.503660 0.556270 0.000000
0.451071 0.561699 0.000000
0.400556 0.571466 0.000000
0.357969 0.580714 0.000000
0.320935 0.659383 0.000000
0.294006 0.709535 0.000000
0.335779 0.812474 0.000000
0.359959 0.897725 0.000000
0.584060 0.936823 0.000000
1.000000 0.965446 0.000000
0.000000 0.028020 0.000000
0.474066 0.059546 0.000000
0.683887 0.110119 0.000000
0.705543 0.222938 0.000000
0.739493 0.335176 0.000000
0.693157 0.397670 0.000000
0.660190 0.474101 0.000000
0.608273 0.489142 0.000000
0.556211 0.496343 0.000000
0.499961 0.499964 0.000000
0.443697 0.503652 0.000000
0.391657 0.510859 0.000000
0.339798 0.525942 0.000000
0.306891 0.602299 0.000000
0.260504 0.664809 0.000000
0.294452 0.776892 0.000000
0.315903 0.889979 0.000000
0.525437 0.940298 0.000000
1.000000 0.971120 0.000000
0.000000 0.033385 0.000000
0.415786 0.062930 0.000000
0.639733 0.102408 0.000000
0.664345 0.187661 0.000000
0.705961 0.290468 0.000000
0.679088 0.340502 0.000000
0.642118 0.419396 0.000000
0.599398 0.428571 0.000000
0.548942 0.438227 0.000000
0.496333 0.443800 0.000000
0.438292 0.451020 0.000000
0.383814 0.457157 0.000000
0.326062 0.482636 0.000000
0.287963 0.551546 0.000000
0.241693 0.634412 0.000000
0.253436 0.743852 0.000000
0.288643 0.881451 0.000000
0.475706 0.944486 0.000000
1.000000 0.975755 0.000000
0.000000 0.039513 0.000000
0.352579 0.066397 0.000000
0.572033 0.099364 0.000000
0.614803 0.159061 0.000000
0.652450 0.235737 0.000000
0.648988 0.291222 0.000000
0.628530 0.346839 0.000000
0.590956 0.369347 0.000000
0.542842 0.383862 0.000000
0.489108 0.391666 0.000000
0.428582 0.400565 0.000000
0.369304 0.409177 0.000000
0.309503 0.452775 0.000000
0.259298 0.505343 0.000000
0.229697 0.611523 0.000000
0.216057 0.723162 0.000000
0.269445 0.877963 0.000000
0.430779 0.949302 0.000000
1.000000 0.979617 0.000000
0.000000 0.046514 0.000000
0.295266 0.071474 0.000000
0.503304 0.100804 0.000000
0.563714 0.154175 0.000000
0.596588 0.211562 0.000000
0.594153 0.258709 0.000000
0.576374 0.295251 0.000000
0.547220 0.309685 0.000000
0.517410 0.326169 0.000000
0.473997 0.339756 0.000000
0.419354 0.357894 0.000000
0.346864 0.371519 0.000000
0.295244 0.423471 0.000000
0.224231 0.488879 0.000000
0.212494 0.596673 0.000000
0.190213 0.715962 0.000000
0.250140 0.884272 0.000000
0.395135 0.954957 0.000000
1.000000 0.982663 0.000000
0.000000 0.055320 0.000000
0.234494 0.079938 0.000000
0.384699 0.096885 0.000000
0.470396 0.127716 0.000000
0.498035 0.161947 0.000000
0.509199 0.190978 0.000000
0.511081 0.224212 0.000000
0.494633 0.259208 0.000000
0.448483 0.287921 0.000000
0.397712 0.306854 0.000000
0.340618 0.320928 0.000000
0.291212 0.350958 0.000000
0.258607 0.405874 0.000000
0.191057 0.490510 0.000000
0.184241 0.589722 0.000000
0.172582 0.716153 0.000000
0.225797 0.893882 0.000000
0.369755 0.961586 0.000000
1.000000 0.985159 0.000000
0.000000 0.066623 0.000000
0.152389 0.090776 0.000000
0.237293 0.108772 0.000000
0.331293 0.117333 0.000000
0.395173 0.144030 0.000000
0.410338 0.184173 0.000000
0.403359 0.212364 0.000000
0.388573 0.229752 0.000000
0.365701 0.241699 0.000000
0.335182 0.260460 0.000000
0.290543 0.294042 0.000000
0.235700 0.347506 0.000000
0.211491 0.403453 0.000000
0.161900 0.502016 0.000000
0.144148 0.604777 0.000000
0.168969 0.744815 0.000000
0.195671 0.906626 0.000000
0.353309 0.968345 0.000000
1.000000 0.987063 0.000000
0.000000 0.079691 0.000000
0.128053 0.116703 0.000000
0.183093 0.158686 0.000000
0.214808 0.170359 0.000000
0.255104 0.169007 0.000000
0.283812 0.172581 0.000000
0.284015 0.190361 0.000000
0.276799 0.216039 0.000000
0.256258 0.253342 0.000000
0.223230 0.294423 0.000000
0.187540 0.335812 0.000000
0.158980 0.385302 0.000000
0.154152 0.436333 0.000000
0.127602 0.529684 0.000000
0.117545 0.668602 0.000000
0.170116 0.785080 0.000000
0.159489 0.917026 0.000000
0.364220 0.976567 0.000000
1.000000 0.989492 0.000000
0.000000 0.112989 0.000000
0.038243 0.115404 0.000000
0.069772 0.129631 0.000000
0.083064 0.159502 0.000000
0.093498 0.195627 0.000000
0.106233 0.225817 0.000000
0.115764 0.249981 0.000000
0.122128 0.269457 0.000000
0.118655 0.288686 0.000000
0.110099 0.315952 0.000000
0.102189 0.360025 0.000000
0.099109 0.428008 0.000000
0.100580 0.496707 0.000000
0.096977 0.615250 0.000000
0.109044 0.762934 0.000000
0.158467 0.816966 0.000000
0.129744 0.929966 0.000000
0.390261 0.985177 0.000000
1.000000 0.992633 0.000000
0.000000 0.482885 0.000000
0.006850 0.435600 0.000000
0.014822 0.390199 0.000000
0.023462 0.364278 0.000000
0.031758 0.353004 0.000000
0.038481 0.369660 0.000000
0.045057 0.395166 0.000000
0.050707 0.430365 0.000000
0.055452 0.475266 0.000000
0.059518 0.525144 0.000000
0.062829 0.584044 0.000000
0.066377 0.647307 0.000000
0.071496 0.705711 0.000000
0.080028 0.765116 0.000000
0.090311 0.847656 0.000000
0.116416 0.872026 0.000000
0.115281 0.961647 0.000000
0.435603 0.993125 0.000000
1.000000 0.997077 0.000000
0.000000 1.000000 0.000000
0.002869 1.000000 0.000000
0.007178 1.000000 0.000000
0.010251 1.000000 0.000000
0.012585 1.000000 0.000000
0.014433 1.000000 0.000000
0.016885 1.000000 0.000000
0.019867 1.000000 0.000000
0.023624 1.000000 0.000000
0.028095 1.000000 0.000000
0.033573 1.000000 0.000000
0.039744 1.000000 0.000000
0.046770 1.000000 0.000000
0.054641 1.000000 0.000000
0.064565 1.000000 0.000000
0.079683 1.000000 0.000000
0.112962 1.000000 0.000000
0.483536 1.000000 0.000000
1.000000 1.000000 0.000000
0.000000 0.000000 0.054895
0.517564 0.000000 0.055401
0.883823 0.000000 0.055281
0.917462 0.000000 0.055622
0.934088 0.000000 0.054970
0.945652 0.000000 0.052757
0.954575 0.000000 0.054768
0.961307 0.000000 0.055148
0.967239 0.000000 0.055320
0.972544 0.000000 0.055425
0.976911 0.000000 0.055253
0.980567 0.000000 0.055086
0.983483 0.000000 0.054941
0.985897 0.000000 0.054873
0.987665 0.000000 0.054934
0.989976 0.000000 0.054978
0.993055 0.000000 0.055114
0.997361 0.000000 0.055286
1.000000 0.000000 0.056696
0.000000 0.002675 0.055233
0.564354 0.006906 0.055190
0.883157 0.037595 0.055148
0.882899 0.128344 0.054942
0.909902 0.151721 0.055337
0.920417 0.234580 0.054338
0.928875 0.295013 0.055173
0.933784 0.353088 0.055239
0.937221 0.415907 0.055070
0.940478 0.474769 0.054972
0.944507 0.524749 0.055006
0.949220 0.569562 0.054977
0.954798 0.605057 0.055052
0.961387 0.630695 0.055020
0.968132 0.647117 0.055058
0.976441 0.635435 0.054930
0.985084 0.608577 0.055113
0.993137 0.564399 0.055146
1.000000 0.519605 0.054433
0.000000 0.007005 0.055056
0.609135 0.014941 0.055061
0.869950 0.069545 0.055124
0.841692 0.183612 0.054948
0.891745 0.237032 0.055098
0.903121 0.384776 0.054895
0.899134 0.502973 0.054946
0.900569 0.572058 0.054948
0.897554 0.639794 0.054846
0.889758 0.683902 0.054947
0.881196 0.711218 0.054953
0.877701 0.730446 0.055031
0.884023 0.749830 0.055171
0.893679 0.774242 0.054920
0.906229 0.804292 0.055187
0.916781 0.840510 0.055055
0.930604 0.869880 0.055259
0.962661 0.882726 0.054686
1.000000 0.883201 0.057662
0.000000 0.010123 0.055028
0.635717 0.023580 0.055005
0.840451 0.083198 0.054979
0.829940 0.215205 0.054980
0.882833 0.331068 0.055062
0.872325 0.470202 0.055048
0.845847 0.563735 0.054993
0.840873 0.614731 0.054956
0.812359 0.664264 0.055015
0.776868 0.705593 0.055062
0.743791 0.746679 0.055020
0.723238 0.784001 0.054991
0.716130 0.809734 0.054899
0.716053 0.827531 0.054983
0.744519 0.831219 0.054846
0.784664 0.829918 0.054887
0.816282 0.841612 0.054982
0.871499 0.882669 0.054577
1.000000 0.916631 0.051049
0.000000 0.012432 0.055085
0.647225 0.031898 0.054927
0.804228 0.093664 0.055006
0.831173 0.255227 0.054961
0.855997 0.395150 0.054950
0.838156 0.498025 0.054972
0.788295 0.596487 0.054997
0.764224 0.652420 0.054986
0.709476 0.706021 0.055002
0.664760 0.739481 0.055027
0.634410 0.758304 0.055008
0.611428 0.770218 0.055042
0.596609 0.787530 0.055161
0.589754 0.815839 0.054956
0.604787 0.856066 0.055065
0.669228 0.883006 0.055206
0.762822 0.892043 0.055200
0.848375 0.908613 0.054294
1.000000 0.930221 0.054991
0.000000 0.014216 0.055027
0.630523 0.038642 0.054919
0.774123 0.106334 0.055085
0.827531 0.283967 0.055002
0.815749 0.410354 0.055023
0.809039 0.509248 0.055030
0.741217 0.594150 0.055024
0.708815 0.649148 0.055005
0.659397 0.679110 0.055021
0.602256 0.693111 0.054971
0.551516 0.712123 0.055008
0.505315 0.740707 0.054991
0.488944 0.775915 0.055039
0.490799 0.808922 0.054871
0.501877 0.838149 0.055061
0.529894 0.872248 0.054838
0.615378 0.903507 0.055146
0.765821 0.920598 0.055443
1.000000 0.944521 0.059872
0.000000 0.016638 0.055036
0.605049 0.045233 0.054929
0.749857 0.115924 0.055075
0.809716 0.283868 0.054944
0.787521 0.403268 0.054939
0.775895 0.510938 0.054971
0.704670 0.576352 0.054959
0.653234 0.628516 0.054998
0.580692 0.641980 0.054978
0.525980 0.660289 0.054989
0.482582 0.673836 0.054993
0.452716 0.690363 0.055006
0.423596 0.704715 0.055046
0.405873 0.741284 0.055004
0.403517 0.788316 0.054987
0.436318 0.845913 0.055079
0.496921 0.899067 0.054951
0.704548 0.929406 0.054808
1.000000 0.955254 0.055106
0.000000 0.019553 0.055058
0.569284 0.050802 0.054955
0.730425 0.122171 0.055052
0.784000 0.276819 0.055010
0.770225 0.388515 0.054987
0.740697 0.494714 0.054992
0.690385 0.547274 0.055015
0.630678 0.590856 0.054996
0.571439 0.599396 0.054990
0.510885 0.608353 0.055014
0.457206 0.616152 0.055019
0.409157 0.630657 0.055008
0.371501 0.653190 0.055003
0.350873 0.708843 0.054989
0.347559 0.764226 0.054975
0.385272 0.840924 0.054945
0.427946 0.900495 0.054988
0.646883 0.934104 0.054951
1.000000 0.961875 0.054759
0.000000 0.023254 0.055129
0.524390 0.055526 0.055021
0.711221 0.118725 0.055007
0.746659 0.256209 0.055026
0.758298 0.365551 0.055055
0.712097 0.448455 0.055044
0.673877 0.517393 0.055009
0.616174 0.542816 0.054970
0.561731 0.548960 0.055007
0.503664 0.556214 0.054985
0.451052 0.561732 0.054996
0.400614 0.571443 0.054992
0.358002 0.580749 0.055003
0.320885 0.659426 0.055009
0.294050 0.709507 0.055006
0.335699 0.812425 0.054986
0.360176 0.897434 0.054943
0.583957 0.937369 0.055122
1.000000 0.967705 0.054745
0.000000 0.027667 0.055228
0.474620 0.059581 0.055005
0.683886 0.110196 0.055038
0.705589 0.223044 0.055005
0.739461 0.335239 0.055004
0.693118 0.397781 0.054990
0.660240 0.474044 0.055017
0.608332 0.489143 0.055003
0.556228 0.496335 0.055016
0.500000 0.500026 0.055023
0.443764 0.503662 0.055005
0.391657 0.510857 0.055007
0.339773 0.525979 0.055006
0.306841 0.602305 0.054984
0.260523 0.664774 0.055020
0.294429 0.776973 0.054998
0.316139 0.889706 0.055069
0.525474 0.940567 0.055036
1.000000 0.972933 0.054956
0.000000 0.033002 0.055127
0.416159 0.062906 0.055048
0.639872 0.102507 0.055012
0.664316 0.187644 0.054989
0.705991 0.290516 0.055018
0.679146 0.340566 0.054958
0.641982 0.419307 0.055003
0.599412 0.428553 0.054988
0.548928 0.438270 0.054987
0.496333 0.443790 0.055031
0.438274 0.451051 0.054992
0.383803 0.457148 0.054991
0.326168 0.482634 0.055010
0.287929 0.551477 0.054983
0.241690 0.634468 0.054986
0.253367 0.743825 0.055003
0.288782 0.881119 0.054990
0.475560 0.944521 0.055010
1.000000 0.977261 0.054950
0.000000 0.038964 0.055020
0.353026 0.066393 0.055232
0.572027 0.099473 0.055052
0.614743 0.159098 0.055004
0.652439 0.235758 0.054969
0.649134 0.291175 0.055019
0.628528 0.346768 0.054993
0.590908 0.369346 0.055018
0.542829 0.383814 0.054966
0.489143 0.391652 0.054993
0.428561 0.400604 0.054984
0.369323 0.409103 0.054990
0.309643 0.452714 0.055000
0.259261 0.505248 0.055012
0.229828 0.611407 0.055017
0.215950 0.723196 0.055000
0.269540 0.877605 0.055071
0.430559 0.949180 0.054965
1.000000 0.980884 0.054985
0.000000 0.045698 0.055083
0.294630 0.071416 0.055304
0.502807 0.100946 0.055055
0.563735 0.154120 0.054965
0.596538 0.211704 0.054947
0.594045 0.258768 0.055016
0.576348 0.295344 0.054945
0.547254 0.309698 0.055036
0.517371 0.326161 0.055016
0.473978 0.339791 0.055034
0.419249 0.358018 0.055017
0.346741 0.371471 0.054946
0.295339 0.423659 0.055072
0.224123 0.489148 0.054957
0.212461 0.596757 0.055036
0.190243 0.716141 0.055011
0.250080 0.883860 0.055027
0.395082 0.954726 0.055014
1.000000 0.983739 0.054999
0.000000 0.054040 0.051401
0.235314 0.079779 0.054203
0.384819 0.097096 0.054730
0.470237 0.127787 0.054989
0.497994 0.161862 0.054963
0.509301 0.190969 0.055009
0.510884 0.224115 0.054938
0.494747 0.259251 0.054981
0.448557 0.287924 0.054966
0.397752 0.306841 0.055007
0.340614 0.320846 0.054957
0.291167 0.350881 0.055007
0.258735 0.405874 0.055009
0.191023 0.490703 0.054956
0.184270 0.589616 0.054991
0.172413 0.716011 0.055024
0.225820 0.893453 0.054984
0.369586 0.961324 0.055002
1.000000 0.986096 0.054990
0.000000 0.064627 0.056037
0.151892 0.089721 0.055474
0.236897 0.108385 0.055083
0.330860 0.117255 0.054866
0.395064 0.143985 0.054932
0.410364 0.184290 0.055023
0.403234 0.212463 0.055022
0.388585 0.229796 0.055022
0.365526 0.241692 0.055056
0.335258 0.260521 0.055033
0.290528 0.294054 0.054990
0.235779 0.347523 0.054995
0.211610 0.403418 0.054956
0.161925 0.502033 0.054992
0.143925 0.604900 0.054956
0.168778 0.744631 0.055128
0.195726 0.906110 0.055028
0.353106 0.968084 0.055059
1.000000 0.987823 0.054886
0.000000 0.082010 0.057935
0.128217 0.116708 0.055118
0.183334 0.158224 0.054876
0.215067 0.170108 0.055106
0.255184 0.168833 0.055058
0.283944 0.172452 0.055052
0.283823 0.190239 0.055021
0.276784 0.215954 0.055007
0.256207 0.253370 0.055004
0.223012 0.294445 0.054987
0.187621 0.335701 0.055007
0.159085 0.385261 0.055010
0.154115 0.436344 0.054967
0.127798 0.529787 0.054872
0.117058 0.669008 0.054977
0.170224 0.784936 0.055061
0.159293 0.916749 0.055029
0.364616 0.976412 0.054939
1.000000 0.990081 0.054917
0.000000 0.115436 0.053728
0.037818 0.116424 0.054835
0.069797 0.129837 0.055056
0.083357 0.159295 0.055040
0.093839 0.195696 0.055075
0.106504 0.225802 0.055038
0.116060 0.250132 0.054987
0.122356 0.269506 0.055046
0.118795 0.288737 0.054979
0.110263 0.316083 0.055031
0.102527 0.360172 0.054902
0.099487 0.427944 0.054995
0.100953 0.497121 0.055014
0.096895 0.615207 0.054602
0.108312 0.762736 0.055113
0.158412 0.816637 0.054860
0.129750 0.930376 0.055052
0.390973 0.985055 0.054989
1.000000 0.993099 0.054895
0.000000 0.482566 0.055605
0.006893 0.435918 0.055104
0.014918 0.391217 0.054973
0.023572 0.364368 0.055005
0.031900 0.353016 0.055015
0.038654 0.369532 0.055031
0.045223 0.395170 0.055021
0.050821 0.430485 0.054988
0.055528 0.475594 0.055009
0.059593 0.525321 0.055149
0.062897 0.583863 0.055183
0.066356 0.646959 0.055228
0.071286 0.705295 0.055268
0.079669 0.765390 0.054369
0.089997 0.847980 0.055208
0.116872 0.871686 0.055127
0.116397 0.962270 0.054506
0.435710 0.993097 0.055181
1.000000 0.997355 0.054777
0.000000 1.000000 0.054029
0.002681 1.000000 0.054900
0.007015 1.000000 0.055011
0.010080 1.000000 0.055085
0.012374 1.000000 0.055148
0.014141 1.000000 0.055121
0.016569 1.000000 0.054990
0.019482 1.000000 0.055010
0.023162 1.000000 0.055009
0.027579 1.000000 0.054943
0.032923 1.000000 0.054731
0.038845 1.000000 0.054665
0.045582 1.000000 0.054826
0.054275 1.000000 0.053997
0.065645 1.000000 0.055613
0.081952 1.000000 0.057306
0.115358 1.000000 0.053944
0.482507 1.000000 0.055330
1.000000 1.000000 0.054210
0.000000 0.000000 0.110501
0.516118 0.000000 0.109842
0.887149 0.000000 0.111272
0.920684 0.000000 0.108037
0.936928 0.000000 0.109467
0.945872 0.000000 0.108052
0.953007 0.000000 0.110180
0.959935 0.000000 0.110379
0.966079 0.000000 0.110292
0.971642 0.000000 0.110188
0.976239 0.000000 0.110311
0.980020 0.000000 0.110236
0.983005 0.000000 0.110222
0.985482 0.000000 0.110245
0.987327 0.000000 0.110197
0.989693 0.000000 0.110373
0.992756 0.000000 0.110608