# vtk DataFile Version 2.0
Mesh for Fierro
ASCII 
DATASET UNSTRUCTURED_GRID

POINTS 2527 float
0.000000 0.000000 0.000000
0.422200 0.000000 0.000000
0.678040 0.000000 0.000000
0.760691 0.000000 0.000000
0.827957 0.000000 0.000000
0.863228 0.000000 0.000000
0.888253 0.000000 0.000000
0.906439 0.000000 0.000000
0.921243 0.000000 0.000000
0.933231 0.000000 0.000000
0.943321 0.000000 0.000000
0.951908 0.000000 0.000000
0.959239 0.000000 0.000000
0.966145 0.000000 0.000000
0.972795 0.000000 0.000000
0.979567 0.000000 0.000000
0.986342 0.000000 0.000000
0.993151 0.000000 0.000000
1.000000 0.000000 0.000000
0.000000 0.006853 0.000000
0.421560 0.008148 0.000000
0.670632 0.024257 0.000000
0.756979 0.041020 0.000000
0.824425 0.064242 0.000000
0.858776 0.104633 0.000000
0.883021 0.142802 0.000000
0.900102 0.179229 0.000000
0.914060 0.216704 0.000000
0.925387 0.255572 0.000000
0.935182 0.289325 0.000000
0.943900 0.323775 0.000000
0.951774 0.355545 0.000000
0.959842 0.377886 0.000000
0.967659 0.396006 0.000000
0.975658 0.408702 0.000000
0.983730 0.415270 0.000000
0.991852 0.421586 0.000000
1.000000 0.422066 0.000000
0.000000 0.013672 0.000000
0.415171 0.016256 0.000000
0.658022 0.046003 0.000000
0.751259 0.078875 0.000000
0.814141 0.123264 0.000000
0.845480 0.188832 0.000000
0.865914 0.255240 0.000000
0.880939 0.313072 0.000000
0.890200 0.372304 0.000000
0.895374 0.426766 0.000000
0.898421 0.475713 0.000000
0.900344 0.518999 0.000000
0.903049 0.557711 0.000000
0.910789 0.588886 0.000000
0.921124 0.616599 0.000000
0.935889 0.639586 0.000000
0.954030 0.657932 0.000000
0.975752 0.670614 0.000000
1.000000 0.678133 0.000000
0.000000 0.020466 0.000000
0.408671 0.024338 0.000000
0.639581 0.064108 0.000000
0.737459 0.110467 0.000000
0.794338 0.173614 0.000000
0.821817 0.249011 0.000000
0.833328 0.330332 0.000000
0.843363 0.392443 0.000000
0.840153 0.462067 0.000000
0.836627 0.519504 0.000000
0.830673 0.574244 0.000000
0.829936 0.620915 0.000000
0.831796 0.663166 0.000000
0.844739 0.694251 0.000000
0.862582 0.720590 0.000000
0.889531 0.737463 0.000000
0.921139 0.751237 0.000000
0.958953 0.756969 0.000000
1.000000 0.760714 0.000000
0.000000 0.027266 0.000000
0.396094 0.032347 0.000000
0.616614 0.078927 0.000000
0.720619 0.137415 0.000000
0.768578 0.214059 0.000000
0.793598 0.296466 0.000000
0.793828 0.386117 0.000000
0.798579 0.452954 0.000000
0.782129 0.523953 0.000000
0.770973 0.578706 0.000000
0.759314 0.627168 0.000000
0.755347 0.666968 0.000000
0.750124 0.703776 0.000000
0.763874 0.737175 0.000000
0.785902 0.768600 0.000000
0.826414 0.794336 0.000000
0.876726 0.814171 0.000000
0.935790 0.824453 0.000000
1.000000 0.828005 0.000000
0.000000 0.033963 0.000000
0.377809 0.040144 0.000000
0.588807 0.089224 0.000000
0.694218 0.155238 0.000000
0.737202 0.236092 0.000000
0.759615 0.321050 0.000000
0.751849 0.407823 0.000000
0.750370 0.476657 0.000000
0.723841 0.538723 0.000000
0.704736 0.591330 0.000000
0.684163 0.638401 0.000000
0.673702 0.680638 0.000000
0.664517 0.721576 0.000000
0.678931 0.759595 0.000000
0.703552 0.793587 0.000000
0.750979 0.821832 0.000000
0.811167 0.845447 0.000000
0.895324 0.858713 0.000000
1.000000 0.863208 0.000000
0.000000 0.040892 0.000000
0.355614 0.048236 0.000000
0.557711 0.096994 0.000000
0.663207 0.168217 0.000000
0.703767 0.249929 0.000000
0.721561 0.335360 0.000000
0.709732 0.418892 0.000000
0.697856 0.487381 0.000000
0.661767 0.541794 0.000000
0.638218 0.591795 0.000000
0.609990 0.633513 0.000000
0.597922 0.673561 0.000000
0.581169 0.709739 0.000000
0.592147 0.751914 0.000000
0.613955 0.793880 0.000000
0.669714 0.833368 0.000000
0.744668 0.865964 0.000000
0.857135 0.882939 0.000000
1.000000 0.888007 0.000000
0.000000 0.048159 0.000000
0.323686 0.056093 0.000000
0.518893 0.099648 0.000000
0.620961 0.170055 0.000000
0.666934 0.244674 0.000000
0.680623 0.326303 0.000000
0.673552 0.402108 0.000000
0.656368 0.466946 0.000000
0.620784 0.516605 0.000000
0.588586 0.566900 0.000000
0.555520 0.610802 0.000000
0.533035 0.656354 0.000000
0.512612 0.697800 0.000000
0.523327 0.750371 0.000000
0.547024 0.798571 0.000000
0.607615 0.843365 0.000000
0.687000 0.881013 0.000000
0.820802 0.900074 0.000000
1.000000 0.906274 0.000000
0.000000 0.056785 0.000000
0.289275 0.064827 0.000000
0.475711 0.101590 0.000000
0.574265 0.169321 0.000000
0.627144 0.240641 0.000000
0.638390 0.315816 0.000000
0.633520 0.389954 0.000000
0.610823 0.444477 0.000000
0.577708 0.489706 0.000000
0.544049 0.535596 0.000000
0.510292 0.577740 0.000000
0.483372 0.620777 0.000000
0.458118 0.661745 0.000000
0.461333 0.723856 0.000000
0.476007 0.782171 0.000000
0.537909 0.840153 0.000000
0.627418 0.890206 0.000000
0.783107 0.914066 0.000000
1.000000 0.921000 0.000000
0.000000 0.066876 0.000000
0.255683 0.074641 0.000000
0.426705 0.104586 0.000000
0.519523 0.163355 0.000000
0.578749 0.229114 0.000000
0.591309 0.295237 0.000000
0.591829 0.361858 0.000000
0.566881 0.411461 0.000000
0.535569 0.455944 0.000000
0.499998 0.500030 0.000000
0.464385 0.544071 0.000000
0.433105 0.588560 0.000000
0.408224 0.638201 0.000000
0.408691 0.704776 0.000000
0.421229 0.770910 0.000000
0.480410 0.836580 0.000000
0.573185 0.895424 0.000000
0.744166 0.925348 0.000000
1.000000 0.932951 0.000000
0.000000 0.078847 0.000000
0.216891 0.085994 0.000000
0.372518 0.109851 0.000000
0.462101 0.159843 0.000000
0.523927 0.217803 0.000000
0.538718 0.276153 0.000000
0.541876 0.338254 0.000000
0.516625 0.379200 0.000000
0.489674 0.422280 0.000000
0.455960 0.464409 0.000000
0.422269 0.510299 0.000000
0.389169 0.555547 0.000000
0.366466 0.609986 0.000000
0.361661 0.684193 0.000000
0.372794 0.759392 0.000000
0.425832 0.830739 0.000000
0.524166 0.898445 0.000000
0.710558 0.935180 0.000000
1.000000 0.943033 0.000000
0.000000 0.093607 0.000000
0.179237 0.099887 0.000000
0.313136 0.119040 0.000000
0.392449 0.156661 0.000000
0.452961 0.201430 0.000000
0.476624 0.249626 0.000000
0.487379 0.302160 0.000000
0.466990 0.343629 0.000000
0.444457 0.389185 0.000000
0.411444 0.433118 0.000000
0.379236 0.483383 0.000000
0.343629 0.533040 0.000000
0.326436 0.597939 0.000000
0.319362 0.673685 0.000000
0.333041 0.755339 0.000000
0.379076 0.829974 0.000000
0.481132 0.900471 0.000000
0.676420 0.943967 0.000000
1.000000 0.951615 0.000000
0.000000 0.111696 0.000000
0.142766 0.116974 0.000000
0.255119 0.133981 0.000000
0.330386 0.166603 0.000000
0.386118 0.206172 0.000000
0.407851 0.248169 0.000000
0.418761 0.290303 0.000000
0.402100 0.326483 0.000000
0.389995 0.366467 0.000000
0.361821 0.408209 0.000000
0.338255 0.458125 0.000000
0.302182 0.512621 0.000000
0.290307 0.581216 0.000000
0.278422 0.664473 0.000000
0.296300 0.750193 0.000000
0.336779 0.831811 0.000000
0.442310 0.903099 0.000000
0.644513 0.951845 0.000000
1.000000 0.958944 0.000000
0.000000 0.136766 0.000000
0.104731 0.141191 0.000000
0.188852 0.154559 0.000000
0.249067 0.178135 0.000000
0.296421 0.206359 0.000000
0.321037 0.240338 0.000000
0.335498 0.278410 0.000000
0.326310 0.319374 0.000000
0.315812 0.361654 0.000000
0.295216 0.408690 0.000000
0.276150 0.461278 0.000000
0.249618 0.523343 0.000000
0.248162 0.592146 0.000000
0.240353 0.678941 0.000000
0.262929 0.763910 0.000000
0.305664 0.844773 0.000000
0.411277 0.910835 0.000000
0.622017 0.959890 0.000000
1.000000 0.965968 0.000000
0.000000 0.171940 0.000000
0.064225 0.175527 0.000000
0.123205 0.185833 0.000000
0.173640 0.205719 0.000000
0.214097 0.231502 0.000000
0.236129 0.262921 0.000000
0.249847 0.296301 0.000000
0.244613 0.333059 0.000000
0.240622 0.372794 0.000000
0.229077 0.421213 0.000000
0.217865 0.475988 0.000000
0.201437 0.547054 0.000000
0.206175 0.613895 0.000000
0.206367 0.703569 0.000000
0.231505 0.785889 0.000000
0.279335 0.862626 0.000000
0.383516 0.921079 0.000000
0.603706 0.967696 0.000000
1.000000 0.972650 0.000000
0.000000 0.239301 0.000000
0.041022 0.243067 0.000000
0.078845 0.248834 0.000000
0.110436 0.262466 0.000000
0.137375 0.279339 0.000000
0.155222 0.305676 0.000000
0.168150 0.336824 0.000000
0.170022 0.379083 0.000000
0.169275 0.425808 0.000000
0.163464 0.480370 0.000000
0.159853 0.537950 0.000000
0.156642 0.607597 0.000000
0.166637 0.669625 0.000000
0.178149 0.750969 0.000000
0.205704 0.826342 0.000000
0.262480 0.889577 0.000000
0.360510 0.935838 0.000000
0.590652 0.975672 0.000000
1.000000 0.979452 0.000000
0.000000 0.322124 0.000000
0.024318 0.329260 0.000000
0.046033 0.341974 0.000000
0.064164 0.360532 0.000000
0.078945 0.383494 0.000000
0.089200 0.411284 0.000000
0.096936 0.442304 0.000000
0.099547 0.481131 0.000000
0.101619 0.524094 0.000000
0.104607 0.573186 0.000000
0.109806 0.627412 0.000000
0.118985 0.687006 0.000000
0.134012 0.744682 0.000000
0.154557 0.811134 0.000000
0.185798 0.876771 0.000000
0.248838 0.921143 0.000000
0.341990 0.954001 0.000000
0.584164 0.983724 0.000000
1.000000 0.986267 0.000000
0.000000 0.577840 0.000000
0.008175 0.578156 0.000000
0.016265 0.584083 0.000000
0.024311 0.590651 0.000000
0.032305 0.603601 0.000000
0.040112 0.621841 0.000000
0.048162 0.644270 0.000000
0.056026 0.676274 0.000000
0.064849 0.710369 0.000000
0.074674 0.744157 0.000000
0.085935 0.783031 0.000000
0.099912 0.820809 0.000000
0.117036 0.857044 0.000000
0.141245 0.895279 0.000000
0.175540 0.935781 0.000000
0.243047 0.958947 0.000000
0.329227 0.975704 0.000000
0.578236 0.991822 0.000000
1.000000 0.993130 0.000000
0.000000 1.000000 0.000000
0.006841 1.000000 0.000000
0.013780 1.000000 0.000000
0.020619 1.000000 0.000000
0.027405 1.000000 0.000000
0.034051 1.000000 0.000000
0.041066 1.000000 0.000000
0.048386 1.000000 0.000000
0.056978 1.000000 0.000000
0.067085 1.000000 0.000000
0.078994 1.000000 0.000000
0.093757 1.000000 0.000000
0.111958 1.000000 0.000000
0.136817 1.000000 0.000000
0.171970 1.000000 0.000000
0.239273 1.000000 0.000000
0.322092 1.000000 0.000000
0.577878 1.000000 0.000000
1.000000 1.000000 0.000000
0.000000 0.000000 0.055199
0.422370 0.000000 0.055047
0.677723 0.000000 0.055033
0.760626 0.000000 0.055019
0.828016 0.000000 0.054975
[...]
POINT_DATA 2527 
VECTORS pos float 
0.000000 0.000000 0.000000
0.422200 0.000000 0.000000
0.678040 0.000000 0.000000
0.760691 0.000000 0.000000
0.827957 0.000000 0.000000
0.863228 0.000000 0.000000
0.888253 0.000000 0.000000
0.906439 0.000000 0.000000
0.921243 0.000000 0.000000
0.933231 0.000000 0.000000
0.943321 0.000000 0.000000
0.951908 0.000000 0.000000
0.959239 0.000000 0.000000
0.966145 0.000000 0.000000
0.972795 0.000000 0.000000
0.979567 0.000000 0.000000
0.986342 0.000000 0.000000
0.993151 0.000000 0.000000
1.000000 0.000000 0.000000
0.000000 0.006853 0.000000
0.421560 0.008148 0.000000
0.670632 0.024257 0.000000
0.756979 0.041020 0.000000
0.824425 0.064242 0.000000
0.858776 0.104633 0.000000
0.883021 0.142802 0.000000
0.900102 0.179229 0.000000
0.914060 0.216704 0.000000
0.925387 0.255572 0.000000
0.935182 0.289325 0.000000
0.943900 0.323775 0.000000
0.951774 0.355545 0.000000
0.959842 0.377886 0.000000
0.967659 0.396006 0.000000
0.975658 0.408702 0.000000
0.983730 0.415270 0.000000
0.991852 0.421586 0.000000
1.000000 0.422066 0.000000
0.000000 0.013672 0.000000
0.415171 0.016256 0.000000
0.658022 0.046003 0.000000
0.751259 0.078875 0.000000
0.814141 0.123264 0.000000
0.845480 0.188832 0.000000
0.865914 0.255240 0.000000
0.880939 0.313072 0.000000
0.890200 0.372304 0.000000
0.895374 0.426766 0.000000
0.898421 0.475713 0.000000
0.900344 0.518999 0.000000
0.903049 0.557711 0.000000
0.910789 0.588886 0.000000
0.921124 0.616599 0.000000
0.935889 0.639586 0.000000
0.954030 0.657932 0.000000
0.975752 0.670614 0.000000
1.000000 0.678133 0.000000
0.000000 0.020466 0.000000
0.408671 0.024338 0.000000
0.639581 0.064108 0.000000
0.737459 0.110467 0.000000
0.794338 0.173614 0.000000
0.821817 0.249011 0.000000
0.833328 0.330332 0.000000
0.843363 0.392443 0.000000
0.840153 0.462067 0.000000
0.836627 0.519504 0.000000
0.830673 0.574244 0.000000
0.829936 0.620915 0.000000
0.831796 0.663166 0.000000
0.844739 0.694251 0.000000
0.862582 0.720590 0.000000
0.889531 0.737463 0.000000
0.921139 0.751237 0.000000
0.958953 0.756969 0.000000
1.000000 0.760714 0.000000
0.000000 0.027266 0.000000
0.396094 0.032347 0.000000
0.616614 0.078927 0.000000
0.720619 0.137415 0.000000
0.768578 0.214059 0.000000
0.793598 0.296466 0.000000
0.793828 0.386117 0.000000
0.798579 0.452954 0.000000
0.782129 0.523953 0.000000
0.770973 0.578706 0.000000
0.759314 0.627168 0.000000
0.755347 0.666968 0.000000
0.750124 0.703776 0.000000
0.763874 0.737175 0.000000
0.785902 0.768600 0.000000
0.826414 0.794336 0.000000
0.876726 0.814171 0.000000
0.935790 0.824453 0.000000
1.000000 0.828005 0.000000
0.000000 0.033963 0.000000
0.377809 0.040144 0.000000
0.588807 0.089224 0.000000
0.694218 0.155238 0.000000
0.737202 0.236092 0.000000
0.759615 0.321050 0.000000
0.751849 0.407823 0.000000
0.750370 0.476657 0.000000
0.723841 0.538723 0.000000
0.704736 0.591330 0.000000
0.684163 0.638401 0.000000
0.673702 0.680638 0.000000
0.664517 0.721576 0.000000
0.678931 0.759595 0.000000
0.703552 0.793587 0.000000
0.750979 0.821832 0.000000
0.811167 0.845447 0.000000
0.895324 0.858713 0.000000
1.000000 0.863208 0.000000
0.000000 0.040892 0.000000
0.355614 0.048236 0.000000
0.557711 0.096994 0.000000
0.663207 0.168217 0.000000
0.703767 0.249929 0.000000
0.721561 0.335360 0.000000
0.709732 0.418892 0.000000
0.697856 0.487381 0.000000
0.661767 0.541794 0.000000
0.638218 0.591795 0.000000
0.609990 0.633513 0.000000
0.597922 0.673561 0.000000
0.581169 0.709739 0.000000
0.592147 0.751914 0.000000
0.613955 0.793880 0.000000
0.669714 0.833368 0.000000
0.744668 0.865964 0.000000
0.857135 0.882939 0.000000
1.000000 0.888007 0.000000
0.000000 0.048159 0.000000
0.323686 0.056093 0.000000
0.518893 0.099648 0.000000
0.620961 0.170055 0.000000
0.666934 0.244674 0.000000
0.680623 0.326303 0.000000
0.673552 0.402108 0.000000
0.656368 0.466946 0.000000
0.620784 0.516605 0.000000
0.588586 0.566900 0.000000
0.555520 0.610802 0.000000
0.533035 0.656354 0.000000
0.512612 0.697800 0.000000
0.523327 0.750371 0.000000
0.547024 0.798571 0.000000
0.607615 0.843365 0.000000
0.687000 0.881013 0.000000
0.820802 0.900074 0.000000
1.000000 0.906274 0.000000
0.000000 0.056785 0.000000
0.289275 0.064827 0.000000
0.475711 0.101590 0.000000
0.574265 0.169321 0.000000
0.627144 0.240641 0.000000
0.638390 0.315816 0.000000
0.633520 0.389954 0.000000
0.610823 0.444477 0.000000
0.577708 0.489706 0.000000
0.544049 0.535596 0.000000
0.510292 0.577740 0.000000
0.483372 0.620777 0.000000
0.458118 0.661745 0.000000
0.461333 0.723856 0.000000
0.476007 0.782171 0.000000
0.537909 0.840153 0.000000
0.627418 0.890206 0.000000
0.783107 0.914066 0.000000
1.000000 0.921000 0.000000
0.000000 0.066876 0.000000
0.255683 0.074641 0.000000
0.426705 0.104586 0.000000
0.519523 0.163355 0.000000
0.578749 0.229114 0.000000
0.591309 0.295237 0.000000
0.591829 0.361858 0.000000
0.566881 0.411461 0.000000
0.535569 0.455944 0.000000
0.499998 0.500030 0.000000
0.464385 0.544071 0.000000
0.433105 0.588560 0.000000
0.408224 0.638201 0.000000
0.408691 0.704776 0.000000
0.421229 0.770910 0.000000
0.480410 0.836580 0.000000
0.573185 0.895424 0.000000
0.744166 0.925348 0.000000
1.000000 0.932951 0.000000
0.000000 0.078847 0.000000
0.216891 0.085994 0.000000
0.372518 0.109851 0.000000
0.462101 0.159843 0.000000
0.523927 0.217803 0.000000
0.538718 0.276153 0.000000
0.541876 0.338254 0.000000
0.516625 0.379200 0.000000
0.489674 0.422280 0.000000
0.455960 0.464409 0.000000
0.422269 0.510299 0.000000
0.389169 0.555547 0.000000
0.366466 0.609986 0.000000
0.361661 0.684193 0.000000
0.372794 0.759392 0.000000
0.425832 0.830739 0.000000
0.524166 0.898445 0.000000
0.710558 0.935180 0.000000
1.000000 0.943033 0.000000
0.000000 0.093607 0.000000
0.179237 0.099887 0.000000
0.313136 0.119040 0.000000
0.392449 0.156661 0.000000
0.452961 0.201430 0.000000
0.476624 0.249626 0.000000
0.487379 0.302160 0.000000
0.466990 0.343629 0.000000
0.444457 0.389185 0.000000
0.411444 0.433118 0.000000
0.379236 0.483383 0.000000
0.343629 0.533040 0.000000
0.326436 0.597939 0.000000
0.319362 0.673685 0.000000
0.333041 0.755339 0.000000
0.379076 0.829974 0.000000
0.481132 0.900471 0.000000
0.676420 0.943967 0.000000
1.000000 0.951615 0.000000
0.000000 0.111696 0.000000
0.142766 0.116974 0.000000
0.255119 0.133981 0.000000
0.330386 0.166603 0.000000
0.386118 0.206172 0.000000
0.407851 0.248169 0.000000
0.418761 0.290303 0.000000
0.402100 0.326483 0.000000
0.389995 0.366467 0.000000
0.361821 0.408209 0.000000
0.338255 0.458125 0.000000
0.302182 0.512621 0.000000
0.290307 0.581216 0.000000
0.278422 0.664473 0.000000
0.296300 0.750193 0.000000
0.336779 0.831811 0.000000
0.442310 0.903099 0.000000
0.644513 0.951845 0.000000
1.000000 0.958944 0.000000
0.000000 0.136766 0.000000
0.104731 0.141191 0.000000
0.188852 0.154559 0.000000
0.249067 0.178135 0.000000
0.296421 0.206359 0.000000
0.321037 0.240338 0.000000
0.335498 0.278410 0.000000
0.326310 0.319374 0.000000
0.315812 0.361654 0.000000
0.295216 0.408690 0.000000
0.276150 0.461278 0.000000
0.249618 0.523343 0.000000
0.248162 0.592146 0.000000
0.240353 0.678941 0.000000
0.262929 0.763910 0.000000
0.305664 0.844773 0.000000
0.411277 0.910835 0.000000
0.622017 0.959890 0.000000
1.000000 0.965968 0.000000
0.000000 0.171940 0.000000
0.064225 0.175527 0.000000
0.123205 0.185833 0.000000
0.173640 0.205719 0.000000
0.214097 0.231502 0.000000
0.236129 0.262921 0.000000
0.249847 0.296301 0.000000
0.244613 0.333059 0.000000
0.240622 0.372794 0.000000
0.229077 0.421213 0.000000
0.217865 0.475988 0.000000
0.201437 0.547054 0.000000
0.206175 0.613895 0.000000
0.206367 0.703569 0.000000
0.231505 0.785889 0.000000
0.279335 0.862626 0.000000
0.383516 0.921079 0.000000
0.603706 0.967696 0.000000
1.000000 0.972650 0.000000
0.000000 0.239301 0.000000
0.041022 0.243067 0.000000
0.078845 0.248834 0.000000
0.110436 0.262466 0.000000
0.137375 0.279339 0.000000
0.155222 0.305676 0.000000
0.168150 0.336824 0.000000
0.170022 0.379083 0.000000
0.169275 0.425808 0.000000
0.163464 0.480370 0.000000
0.159853 0.537950 0.000000
0.156642 0.607597 0.000000
0.166637 0.669625 0.000000
0.178149 0.750969 0.000000
0.205704 0.826342 0.000000
0.262480 0.889577 0.000000
0.360510 0.935838 0.000000
0.590652 0.975672 0.000000
1.000000 0.979452 0.000000
0.000000 0.322124 0.000000
0.024318 0.329260 0.000000
0.046033 0.341974 0.000000
0.064164 0.360532 0.000000
0.078945 0.383494 0.000000
0.089200 0.411284 0.000000
0.096936 0.442304 0.000000
0.099547 0.481131 0.000000
0.101619 0.524094 0.000000
0.104607 0.573186 0.000000
0.109806 0.627412 0.000000
0.118985 0.687006 0.000000
0.134012 0.744682 0.000000
0.154557 0.811134 0.000000
0.185798 0.876771 0.000000
0.248838 0.921143 0.000000
0.341990 0.954001 0.000000
0.584164 0.983724 0.000000
1.000000 0.986267 0.000000
0.000000 0.577840 0.000000
0.008175 0.578156 0.000000
0.016265 0.584083 0.000000
0.024311 0.590651 0.000000
0.032305 0.603601 0.000000
0.040112 0.621841 0.000000
0.048162 0.644270 0.000000
0.056026 0.676274 0.000000
0.064849 0.710369 0.000000
0.074674 0.744157 0.000000
0.085935 0.783031 0.000000
0.099912 0.820809 0.000000
0.117036 0.857044 0.000000
0.141245 0.895279 0.000000
0.175540 0.935781 0.000000
0.243047 0.958947 0.000000
0.329227 0.975704 0.000000
0.578236 0.991822 0.000000
1.000000 0.993130 0.000000
0.000000 1.000000 0.000000
0.006841 1.000000 0.000000
0.013780 1.000000 0.000000
0.020619 1.000000 0.000000
0.027405 1.000000 0.000000
0.034051 1.000000 0.000000
0.041066 1.000000 0.000000
0.048386 1.000000 0.000000
0.056978 1.000000 0.000000
0.067085 1.000000 0.000000
0.078994 1.000000 0.000000
0.093757 1.000000 0.000000
0.111958 1.000000 0.000000
0.136817 1.000000 0.000000
0.171970 1.000000 0.000000
0.239273 1.000000 0.000000
0.322092 1.000000 0.000000
0.577878 1.000000 0.000000
1.000000 1.000000 0.000000
0.000000 0.000000 0.055199
0.422370 0.000000 0.055047
0.677723 0.000000 0.055033
0.760626 0.000000 0.055019
0.828016 0.000000 0.054975
0.863231 0.000000 0.054997
0.888264 0.000000 0.054980
0.906268 0.000000 0.054970
0.921024 0.000000 0.055055
0.932956 0.000000 0.055074
0.943095 0.000000 0.055078
0.951738 0.000000 0.054949
0.959058 0.000000 0.054962
0.965991 0.000000 0.054897
0.972665 0.000000 0.055043
0.979477 0.000000 0.054973
0.986261 0.000000 0.055106
0.993100 0.000000 0.055113
1.000000 0.000000 0.055088
0.000000 0.006908 0.055196
0.421954 0.008191 0.055057
0.670628 0.024314 0.054986
0.756914 0.040989 0.054989
0.824476 0.064271 0.055004
0.858760 0.104632 0.054971
0.883020 0.142724 0.054997
0.900083 0.179328 0.055013
0.914014 0.216964 0.054993
0.925371 0.255954 0.054956
0.935167 0.289537 0.055004
0.943967 0.323549 0.054971
0.951808 0.355881 0.054959
0.959874 0.378297 0.055011
0.967683 0.396516 0.055016
0.975688 0.409056 0.055019
0.983720 0.415708 0.055048
0.991814 0.422010 0.055036
1.000000 0.422478 0.055058
0.000000 0.013744 0.055114
0.415675 0.016293 0.055051
0.658062 0.046071 0.055007
0.751214 0.078834 0.054992
0.814166 0.123295 0.054986
0.845498 0.188847 0.055006
0.865987 0.255184 0.054978
0.880996 0.313135 0.054995
0.890220 0.372577 0.054958
0.895401 0.426804 0.054982
0.898478 0.475662 0.055018
0.900492 0.518688 0.055001
0.902943 0.557775 0.055004
0.910707 0.588739 0.054992
0.921018 0.616499 0.055007
0.935792 0.639555 0.055004
0.953910 0.658020 0.055013
0.975670 0.670630 0.055004
1.000000 0.677736 0.055006
0.000000 0.020511 0.054956
0.409089 0.024333 0.054991
0.639553 0.064174 0.054990
0.737442 0.110432 0.054971
0.794367 0.173630 0.055014
0.821856 0.249065 0.055006
0.833396 0.330308 0.055006
0.843374 0.392452 0.055000
0.840153 0.462076 0.054994
0.836617 0.519570 0.055032
0.830719 0.574220 0.054995
0.829972 0.620863 0.055011
0.831734 0.663294 0.055005
0.844802 0.694306 0.054974
0.862642 0.720663 0.054985
0.889598 0.737451 0.054973
0.921189 0.751207 0.054972
0.959012 0.756917 0.054988
1.000000 0.760618 0.055000
0.000000 0.027314 0.054944
0.396455 0.032323 0.054976
0.616508 0.078952 0.054989
0.720646 0.137373 0.054996
0.768535 0.214096 0.054991
0.793602 0.296407 0.054993
0.793872 0.386092 0.055008
0.798591 0.452968 0.055001
0.782175 0.524021 0.055001
0.770954 0.578733 0.054997
0.759345 0.627151 0.055000
0.755398 0.666922 0.055005
0.750151 0.703692 0.055015
0.763910 0.737103 0.055024
0.785906 0.768519 0.055000
0.826356 0.794358 0.055022
0.876682 0.814168 0.055015
0.935742 0.824464 0.055000
1.000000 0.827990 0.054973
0.000000 0.033975 0.054854
0.378347 0.040144 0.054969
0.588779 0.089291 0.054992
0.694296 0.155200 0.054989
0.737104 0.236116 0.055013
0.759648 0.321046 0.054992
0.751836 0.407888 0.054990
0.750395 0.476692 0.055019
0.723829 0.538735 0.055011
0.704763 0.591323 0.054989
0.684206 0.638393 0.054998
0.673646 0.680655 0.055018
0.664567 0.721573 0.054993
0.678948 0.759652 0.054983
0.703594 0.793618 0.054994
0.750912 0.821845 0.054982
0.811176 0.845483 0.054993
0.895377 0.858789 0.054990
1.000000 0.863311 0.055019
0.000000 0.040882 0.054919
0.355790 0.048193 0.054941
0.557768 0.097048 0.055028
0.663292 0.168266 0.055012
0.703697 0.249872 0.054995
0.721584 0.335454 0.055005
0.709710 0.418738 0.055006
0.697852 0.487362 0.054995
0.661718 0.541846 0.054992
0.638222 0.591812 0.054999
0.609982 0.633502 0.055007
0.597860 0.673495 0.054985
0.581272 0.709707 0.055010
0.592146 0.751825 0.054983
0.613893 0.793861 0.055002
0.669631 0.833392 0.055000
0.744819 0.865988 0.055017
0.857222 0.883061 0.055002
1.000000 0.888290 0.055000
0.000000 0.048199 0.054970
0.323609 0.056042 0.054979
0.518731 0.099535 0.055011
0.620852 0.170013 0.055016
0.666920 0.244587 0.054989
0.680633 0.326330 0.055008
0.673528 0.402118 0.054995
0.656371 0.466949 0.054997
0.620792 0.516598 0.054992
0.588578 0.566898 0.055004
0.555533 0.610783 0.055008
0.533025 0.656369 0.055000
0.512652 0.697857 0.054994
0.523332 0.750390 0.055000
0.547031 0.798571 0.055003
0.607554 0.843381 0.054983
0.686873 0.880982 0.054996
0.820671 0.900109 0.055006
1.000000 0.906399 0.055019
0.000000 0.056866 0.055068
0.289427 0.064805 0.055020
0.475680 0.101523 0.055031
0.574213 0.169302 0.055007
0.627142 0.240605 0.055034
0.638386 0.315783 0.055011
0.633516 0.390014 0.055021
0.610798 0.444482 0.054984
0.577722 0.489702 0.054996
0.544065 0.535581 0.055000
0.510304 0.577723 0.055007
0.483424 0.620793 0.055006
0.458157 0.661738 0.055013
0.461261 0.723829 0.055023
0.476017 0.782170 0.055008
0.537912 0.840146 0.054978
0.627418 0.890176 0.054987
0.783015 0.914050 0.055017
1.000000 0.921155 0.054991
0.000000 0.067015 0.055066
0.255901 0.074625 0.054973
0.426733 0.104565 0.055028
0.519571 0.163374 0.054995
0.578744 0.229111 0.055014
0.591341 0.295255 0.055002
0.591796 0.361816 0.055012
0.566902 0.411428 0.055004
0.535594 0.455935 0.055005
0.499996 0.500014 0.054998
0.464402 0.544069 0.055005
0.433095 0.588592 0.055008
0.408193 0.638201 0.054996
0.408693 0.704791 0.054981
0.421247 0.770937 0.055012
0.480433 0.836631 0.055013
0.573209 0.895394 0.055009
0.744184 0.925383 0.055023
1.000000 0.933153 0.055102
0.000000 0.078939 0.055052
0.217033 0.085974 0.054985
0.372542 0.109799 0.054999
0.462100 0.159828 0.055001
0.523978 0.217794 0.054994
0.538731 0.276161 0.054972
0.541858 0.338259 0.055009
0.516588 0.379212 0.054993
0.489694 0.422289 0.054981
0.455944 0.464408 0.055015
0.422287 0.510314 0.054986
0.389197 0.555515 0.055008
0.366495 0.609967 0.055001
0.361618 0.684166 0.054995
0.372829 0.759350 0.054980
0.425785 0.830730 0.054988
0.524356 0.898471 0.054995
0.710726 0.935164 0.054980
1.000000 0.943268 0.055002
0.000000 0.093688 0.054963
0.179321 0.099909 0.055026
0.313146 0.119015 0.055009
0.392457 0.156651 0.055001
0.452976 0.201409 0.054998
0.476666 0.249608 0.054998
0.487361 0.302137 0.054997
0.466985 0.343623 0.054996
0.444475 0.389207 0.054998
0.411407 0.433097 0.055000
0.379216 0.483422 0.054993
0.343600 0.533025 0.054987
0.326486 0.597903 0.055026
0.319380 0.673701 0.055001
0.333052 0.755367 0.055023
0.379159 0.829992 0.054990
0.481177 0.900426 0.054999
0.676444 0.943913 0.054975
1.000000 0.951844 0.054999
0.000000 0.111764 0.055006
0.142698 0.117021 0.055007
0.255133 0.134000 0.055002
0.330293 0.166591 0.055029
0.386086 0.206151 0.055009
0.407854 0.248163 0.055019
0.418722 0.290283 0.054972
0.402148 0.326495 0.055011
0.390005 0.366488 0.054996
0.361783 0.408198 0.055010
0.338264 0.458159 0.055001
0.302131 0.512639 0.054985
0.290278 0.581260 0.055011
0.278434 0.664564 0.055016
0.296241 0.750108 0.054972
0.336793 0.831755 0.055010
0.442204 0.902976 0.054992
0.644471 0.951787 0.055015
1.000000 0.959200 0.054992
0.000000 0.136764 0.054997
0.104701 0.141266 0.054995
0.188868 0.154566 0.054966
0.249062 0.178162 0.054975
0.296423 0.206382 0.054982
0.321087 0.240364 0.054992
0.335374 0.278436 0.055002
0.326314 0.319368 0.054993
0.315806 0.361606 0.055012
0.295237 0.408672 0.055005
0.276167 0.461269 0.054982
0.249596 0.523345 0.054996
0.248174 0.592144 0.055012
0.240350 0.678931 0.054988
0.262879 0.763932 0.055006
0.305696 0.844777 0.054998
0.411155 0.910700 0.055000
0.621967 0.959833 0.055013
1.000000 0.966128 0.055016
0.000000 0.171957 0.055011
0.064213 0.175506 0.055007
0.123253 0.185840 0.055021
0.173609 0.205683 0.055002
0.214121 0.231469 0.055002
0.236078 0.262876 0.055001
0.249846 0.296254 0.055004
0.244620 0.333059 0.055007
0.240630 0.372834 0.054995
0.229080 0.421225 0.055034
0.217818 0.475987 0.054988
0.201417 0.547029 0.054997
0.206150 0.613923 0.055004
0.206383 0.703573 0.054998
0.231474 0.785913 0.054996
0.279355 0.862647 0.054985
0.383382 0.920996 0.055008
0.603649 0.967621 0.055029
1.000000 0.972796 0.054976
0.000000 0.239307 0.054970
0.041020 0.243028 0.054985
0.078843 0.248745 0.054983
0.110431 0.262523 0.055011
0.137369 0.279357 0.054978
0.155198 0.305731 0.055002
0.168216 0.336816 0.055004
0.170015 0.379138 0.055009
0.169260 0.425787 0.055006
0.163366 0.480439 0.055012
0.159839 0.537929 0.054985
0.156653 0.607537 0.055002
0.166598 0.669678 0.055022
0.178160 0.750940 0.054965
0.205668 0.826356 0.055006
0.262544 0.889587 0.055001
0.360448 0.935850 0.055022
0.591112 0.975633 0.055007
1.000000 0.979526 0.054979
0.000000 0.322042 0.054994
0.024285 0.329337 0.055026
0.046014 0.342017 0.055008
0.064147 0.360415 0.055005
0.078964 0.383419 0.055006
0.089275 0.411167 0.055004
0.097012 0.442227 0.055025
0.099558 0.481206 0.055001
0.101533 0.524339 0.054979
0.104618 0.573183 0.055021
0.109824 0.627437 0.054992
0.119022 0.686806 0.054985
0.133984 0.744865 0.055050
0.154549 0.811147 0.054955
0.185822 0.876719 0.055025
0.248758 0.921153 0.054984
0.342028 0.953978 0.055009
0.584490 0.983707 0.054995
1.000000 0.986244 0.055044
0.000000 0.577755 0.055021
0.008172 0.578312 0.054995
0.016284 0.584539 0.055018
0.024354 0.591156 0.055027
0.032363 0.603715 0.055037
0.040163 0.621974 0.055013
0.048216 0.644374 0.055009
0.056087 0.676405 0.054938
0.064833 0.710647 0.054959
0.074613 0.744116 0.055046
0.085953 0.783007 0.055014
0.099897 0.820662 0.055012
0.116961 0.857290 0.055016
0.141226 0.895322 0.054992
0.175513 0.935774 0.055008
0.243040 0.958975 0.054991
0.329335 0.975712 0.055014
0.578284 0.991826 0.054984
1.000000 0.993103 0.054969
0.000000 1.000000 0.054818
0.006879 1.000000 0.054881
0.013721 1.000000 0.055006
0.020468 1.000000 0.055036
0.027210 1.000000 0.055031
0.033867 1.000000 0.055004
0.040779 1.000000 0.054878
0.048164 1.000000 0.054929
0.056736 1.000000 0.054989
0.066859 1.000000 0.055102
0.078828 1.000000 0.054999
0.093623 1.000000 0.055005
0.111737 1.000000 0.055046
0.136708 1.000000 0.055034
0.171974 1.000000 0.054979
0.239317 1.000000 0.054999
0.322029 1.000000 0.054979
0.577792 1.000000 0.055011
1.000000 1.000000 0.054901
0.000000 0.000000 0.109966
0.422228 0.000000 0.109989
0.678026 0.000000 0.110006
0.760719 0.000000 0.109931
0.828042 0.000000 0.110041
0.863225 0.000000 0.109966
0.888229 0.000000 0.110091
0.906374 0.000000 0.110092
0.921159 0.000000 0.109983
0.933108 0.000000 0.109983
0.943235 0.000000 0.110041
0.951851 0.000000 0.109945
0.959151 0.000000 0.109888
0.966070 0.000000 0.109966
0.972699 0.000000 0.109931
0.979463 0.000000 0.109993
0.986205 0.000000 0.109903