# vtk DataFile Version 2.0
Mesh for Fierro
ASCII 
DATASET UNSTRUCTURED_GRID

POINTS 2527 float
0.000000 0.000000 0.000000
0.472326 0.000000 0.000000
0.747409 0.000000 0.000000
0.805220 0.000000 0.000000
0.861241 0.000000 0.000000
0.889286 0.000000 0.000000
0.908749 0.000000 0.000000
0.923259 0.000000 0.000000
0.935487 0.000000 0.000000
0.945633 0.000000 0.000000
0.953749 0.000000 0.000000
0.960568 0.000000 0.000000
0.966345 0.000000 0.000000
0.971745 0.000000 0.000000
0.976858 0.000000 0.000000
0.982238 0.000000 0.000000
0.988027 0.000000 0.000000
0.994009 0.000000 0.000000
1.000000 0.000000 0.000000
0.000000 0.006004 0.000000
0.472477 0.007420 0.000000
0.737311 0.028544 0.000000
0.799083 0.052832 0.000000
0.855814 0.072368 0.000000
0.882391 0.130327 0.000000
0.901168 0.173483 0.000000
0.914386 0.216943 0.000000
0.924996 0.261064 0.000000
0.933564 0.305612 0.000000
0.941378 0.344084 0.000000
0.948504 0.382530 0.000000
0.954949 0.417484 0.000000
0.961962 0.441351 0.000000
0.969117 0.459770 0.000000
0.976914 0.469608 0.000000
0.984811 0.473007 0.000000
0.992580 0.472422 0.000000
1.000000 0.472003 0.000000
0.000000 0.011986 0.000000
0.472563 0.015165 0.000000
0.718763 0.051690 0.000000
0.791015 0.097295 0.000000
0.846942 0.143871 0.000000
0.868140 0.231171 0.000000
0.882815 0.306608 0.000000
0.892812 0.371880 0.000000
0.897579 0.437265 0.000000
0.899374 0.493333 0.000000
0.898700 0.541611 0.000000
0.897300 0.582206 0.000000
0.897522 0.617719 0.000000
0.903772 0.646900 0.000000
0.914527 0.672241 0.000000
0.929200 0.697136 0.000000
0.948365 0.718631 0.000000
0.971515 0.737359 0.000000
1.000000 0.747590 0.000000
0.000000 0.017768 0.000000
0.469727 0.023071 0.000000
0.697127 0.070816 0.000000
0.779271 0.131718 0.000000
0.826881 0.203368 0.000000
0.843576 0.295309 0.000000
0.846560 0.385755 0.000000
0.851035 0.449110 0.000000
0.841121 0.519540 0.000000
0.831055 0.575362 0.000000
0.818319 0.628076 0.000000
0.812831 0.672304 0.000000
0.811335 0.711754 0.000000
0.821997 0.741747 0.000000
0.839830 0.764812 0.000000
0.868275 0.779272 0.000000
0.902749 0.791009 0.000000
0.947115 0.799020 0.000000
1.000000 0.805246 0.000000
0.000000 0.023176 0.000000
0.459906 0.030871 0.000000
0.672236 0.085559 0.000000
0.764850 0.160141 0.000000
0.799454 0.249746 0.000000
0.815956 0.343462 0.000000
0.802681 0.440802 0.000000
0.801282 0.507752 0.000000
0.775829 0.576736 0.000000
0.755794 0.627359 0.000000
0.737973 0.669610 0.000000
0.727585 0.705153 0.000000
0.717628 0.737246 0.000000
0.729082 0.768633 0.000000
0.750214 0.799513 0.000000
0.796703 0.826860 0.000000
0.856097 0.846924 0.000000
0.927689 0.855892 0.000000
1.000000 0.861321 0.000000
0.000000 0.028287 0.000000
0.441221 0.038030 0.000000
0.646801 0.096199 0.000000
0.741702 0.177958 0.000000
0.768660 0.270853 0.000000
0.783373 0.365802 0.000000
0.760388 0.456033 0.000000
0.751600 0.524252 0.000000
0.715727 0.580267 0.000000
0.685989 0.626391 0.000000
0.657235 0.667891 0.000000
0.638002 0.707954 0.000000
0.623993 0.746461 0.000000
0.634202 0.783365 0.000000
0.656572 0.815928 0.000000
0.704637 0.843601 0.000000
0.768801 0.868126 0.000000
0.869502 0.882317 0.000000
1.000000 0.889247 0.000000
0.000000 0.033702 0.000000
0.417531 0.045070 0.000000
0.617673 0.102513 0.000000
0.711805 0.188696 0.000000
0.737215 0.282428 0.000000
0.746506 0.375936 0.000000
0.719181 0.460191 0.000000
0.697069 0.527943 0.000000
0.649092 0.574477 0.000000
0.616528 0.617638 0.000000
0.580671 0.651591 0.000000
0.562479 0.688206 0.000000
0.539756 0.719221 0.000000
0.543923 0.760477 0.000000
0.559234 0.802780 0.000000
0.614344 0.846624 0.000000
0.693245 0.882887 0.000000
0.826654 0.901054 0.000000
1.000000 0.908355 0.000000
0.000000 0.039486 0.000000
0.382384 0.051497 0.000000
0.582104 0.102668 0.000000
0.672360 0.187186 0.000000
0.705124 0.272427 0.000000
0.707940 0.361985 0.000000
0.688216 0.437538 0.000000
0.659686 0.500363 0.000000
0.613999 0.541158 0.000000
0.571982 0.582907 0.000000
0.530667 0.618770 0.000000
0.499635 0.659670 0.000000
0.472113 0.697016 0.000000
0.475723 0.751583 0.000000
0.492212 0.801281 0.000000
0.550999 0.851109 0.000000
0.628115 0.892894 0.000000
0.782973 0.914366 0.000000
1.000000 0.923140 0.000000
0.000000 0.046312 0.000000
0.344004 0.058627 0.000000
0.541562 0.101283 0.000000
0.628102 0.181657 0.000000
0.669583 0.261980 0.000000
0.667862 0.342752 0.000000
0.651607 0.419262 0.000000
0.618801 0.469326 0.000000
0.576950 0.506010 0.000000
0.534947 0.543373 0.000000
0.493996 0.576986 0.000000
0.458794 0.614000 0.000000
0.425432 0.649066 0.000000
0.419800 0.715786 0.000000
0.423211 0.775861 0.000000
0.480401 0.841070 0.000000
0.562397 0.897548 0.000000
0.738791 0.924977 0.000000
1.000000 0.935462 0.000000
0.000000 0.054393 0.000000
0.305753 0.066465 0.000000
0.493302 0.100613 0.000000
0.575415 0.168949 0.000000
0.627388 0.244262 0.000000
0.626391 0.314026 0.000000
0.617668 0.383518 0.000000
0.582866 0.428065 0.000000
0.543347 0.465042 0.000000
0.499993 0.500032 0.000000
0.456598 0.534961 0.000000
0.417116 0.571952 0.000000
0.382374 0.616544 0.000000
0.373623 0.685986 0.000000
0.372595 0.755748 0.000000
0.424545 0.830966 0.000000
0.506577 0.899395 0.000000
0.694057 0.933572 0.000000
1.000000 0.945548 0.000000
0.000000 0.064539 0.000000
0.261321 0.075050 0.000000
0.437523 0.102486 0.000000
0.519570 0.158906 0.000000
0.576724 0.224089 0.000000
0.580241 0.284233 0.000000
0.574560 0.350942 0.000000
0.541199 0.385984 0.000000
0.505968 0.423037 0.000000
0.465068 0.456631 0.000000
0.423026 0.494006 0.000000
0.381174 0.530673 0.000000
0.348389 0.580682 0.000000
0.332146 0.657267 0.000000
0.330371 0.738046 0.000000
0.372023 0.818420 0.000000
0.458307 0.898731 0.000000
0.655801 0.941415 0.000000
1.000000 0.953666 0.000000
0.000000 0.076771 0.000000
0.216988 0.085604 0.000000
0.371983 0.107169 0.000000
0.449121 0.148981 0.000000
0.507741 0.198746 0.000000
0.524233 0.248419 0.000000
0.527897 0.302943 0.000000
0.500391 0.340320 0.000000
0.469316 0.381191 0.000000
0.428054 0.417131 0.000000
0.386009 0.458820 0.000000
0.340321 0.499661 0.000000
0.311781 0.562520 0.000000
0.292086 0.638012 0.000000
0.294837 0.727599 0.000000
0.327697 0.812881 0.000000
0.417849 0.897412 0.000000
0.617685 0.948625 0.000000
1.000000 0.960579 0.000000
0.000000 0.091255 0.000000
0.173380 0.098819 0.000000
0.306483 0.117058 0.000000
0.385763 0.153303 0.000000
0.440795 0.197320 0.000000
0.456037 0.239617 0.000000
0.460081 0.280838 0.000000
0.437530 0.311838 0.000000
0.419312 0.348427 0.000000
0.383466 0.382349 0.000000
0.350938 0.425431 0.000000
0.302975 0.472118 0.000000
0.280823 0.539857 0.000000
0.253469 0.623821 0.000000
0.262860 0.717723 0.000000
0.288181 0.811405 0.000000
0.382229 0.897576 0.000000
0.582509 0.955053 0.000000
1.000000 0.966348 0.000000
0.000000 0.110687 0.000000
0.130485 0.117617 0.000000
0.231249 0.131874 0.000000
0.295457 0.156384 0.000000
0.343439 0.183976 0.000000
0.365787 0.216586 0.000000
0.376101 0.253466 0.000000
0.362001 0.292076 0.000000
0.342760 0.332123 0.000000
0.313995 0.373603 0.000000
0.284261 0.419736 0.000000
0.248408 0.475755 0.000000
0.239599 0.543916 0.000000
0.216607 0.634194 0.000000
0.231484 0.729134 0.000000
0.258183 0.822018 0.000000
0.353182 0.903882 0.000000
0.558589 0.962040 0.000000
1.000000 0.971670 0.000000
0.000000 0.138692 0.000000
0.072331 0.144119 0.000000
0.143834 0.153013 0.000000
0.203300 0.173174 0.000000
0.249758 0.200661 0.000000
0.270887 0.231466 0.000000
0.282272 0.262869 0.000000
0.272358 0.294845 0.000000
0.261960 0.330393 0.000000
0.244243 0.372558 0.000000
0.224159 0.423209 0.000000
0.198746 0.492234 0.000000
0.197314 0.559239 0.000000
0.184004 0.656565 0.000000
0.200637 0.750230 0.000000
0.235139 0.839939 0.000000
0.327807 0.914522 0.000000
0.539680 0.969127 0.000000
1.000000 0.976739 0.000000
0.000000 0.194775 0.000000
0.052902 0.200943 0.000000
0.097283 0.209096 0.000000
0.131723 0.220723 0.000000
0.160078 0.235131 0.000000
0.177970 0.258223 0.000000
0.188589 0.288188 0.000000
0.187103 0.327710 0.000000
0.181617 0.371969 0.000000
0.169095 0.424517 0.000000
0.158941 0.480439 0.000000
0.148910 0.550984 0.000000
0.153347 0.614250 0.000000
0.156406 0.704566 0.000000
0.173161 0.796661 0.000000
0.220698 0.868306 0.000000
0.303059 0.929291 0.000000
0.529912 0.976896 0.000000
1.000000 0.982160 0.000000
0.000000 0.252891 0.000000
0.028570 0.262569 0.000000
0.051693 0.281199 0.000000
0.070685 0.303077 0.000000
0.085505 0.327777 0.000000
0.096128 0.353171 0.000000
0.102452 0.382229 0.000000
0.102616 0.417836 0.000000
0.101357 0.458248 0.000000
0.100643 0.506579 0.000000
0.102443 0.562413 0.000000
0.107094 0.628133 0.000000
0.117071 0.693248 0.000000
0.131864 0.768742 0.000000
0.153021 0.856120 0.000000
0.209085 0.902699 0.000000
0.281229 0.948361 0.000000
0.526691 0.984778 0.000000
1.000000 0.987986 0.000000
0.000000 0.527940 0.000000
0.007471 0.527096 0.000000
0.015228 0.526449 0.000000
0.023092 0.530057 0.000000
0.030878 0.539495 0.000000
0.037966 0.558443 0.000000
0.044957 0.582241 0.000000
0.051381 0.617508 0.000000
0.058611 0.655546 0.000000
0.066439 0.693966 0.000000
0.075020 0.738730 0.000000
0.085585 0.783001 0.000000
0.098870 0.826480 0.000000
0.117632 0.869455 0.000000
0.144156 0.927691 0.000000
0.200933 0.947066 0.000000
0.262527 0.971402 0.000000
0.527204 0.992534 0.000000
1.000000 0.993990 0.000000
0.000000 1.000000 0.000000
0.006014 1.000000 0.000000
0.012036 1.000000 0.000000
0.017879 1.000000 0.000000
0.023284 1.000000 0.000000
0.028317 1.000000 0.000000
0.033620 1.000000 0.000000
0.039402 1.000000 0.000000
0.046324 1.000000 0.000000
0.054420 1.000000 0.000000
0.064502 1.000000 0.000000
0.076825 1.000000 0.000000
0.091521 1.000000 0.000000
0.110724 1.000000 0.000000
0.138703 1.000000 0.000000
0.194844 1.000000 0.000000
0.252747 1.000000 0.000000
0.527947 1.000000 0.000000
1.000000 1.000000 0.000000
0.000000 0.000000 0.055219
0.472393 0.000000 0.055062
0.746989 0.000000 0.055054
0.805048 0.000000 0.055007
0.861229 0.000000 0.054979
[...]
POINT_DATA 2527 
VECTORS pos float 
0.000000 0.000000 0.000000
0.472326 0.000000 0.000000
0.747409 0.000000 0.000000
0.805220 0.000000 0.000000
0.861241 0.000000 0.000000
0.889286 0.000000 0.000000
0.908749 0.000000 0.000000
0.923259 0.000000 0.000000
0.935487 0.000000 0.000000
0.945633 0.000000 0.000000
0.953749 0.000000 0.000000
0.960568 0.000000 0.000000
0.966345 0.000000 0.000000
0.971745 0.000000 0.000000
0.976858 0.000000 0.000000
0.982238 0.000000 0.000000
0.988027 0.000000 0.000000
0.994009 0.000000 0.000000
1.000000 0.000000 0.000000
0.000000 0.006004 0.000000
0.472477 0.007420 0.000000
0.737311 0.028544 0.000000
0.799083 0.052832 0.000000
0.855814 0.072368 0.000000
0.882391 0.130327 0.000000
0.901168 0.173483 0.000000
0.914386 0.216943 0.000000
0.924996 0.261064 0.000000
0.933564 0.305612 0.000000
0.941378 0.344084 0.000000
0.948504 0.382530 0.000000
0.954949 0.417484 0.000000
0.961962 0.441351 0.000000
0.969117 0.459770 0.000000
0.976914 0.469608 0.000000
0.984811 0.473007 0.000000
0.992580 0.472422 0.000000
1.000000 0.472003 0.000000
0.000000 0.011986 0.000000
0.472563 0.015165 0.000000
0.718763 0.051690 0.000000
0.791015 0.097295 0.000000
0.846942 0.143871 0.000000
0.868140 0.231171 0.000000
0.882815 0.306608 0.000000
0.892812 0.371880 0.000000
0.897579 0.437265 0.000000
0.899374 0.493333 0.000000
0.898700 0.541611 0.000000
0.897300 0.582206 0.000000
0.897522 0.617719 0.000000
0.903772 0.646900 0.000000
0.914527 0.672241 0.000000
0.929200 0.697136 0.000000
0.948365 0.718631 0.000000
0.971515 0.737359 0.000000
1.000000 0.747590 0.000000
0.000000 0.017768 0.000000
0.469727 0.023071 0.000000
0.697127 0.070816 0.000000
0.779271 0.131718 0.000000
0.826881 0.203368 0.000000
0.843576 0.295309 0.000000
0.846560 0.385755 0.000000
0.851035 0.449110 0.000000
0.841121 0.519540 0.000000
0.831055 0.575362 0.000000
0.818319 0.628076 0.000000
0.812831 0.672304 0.000000
0.811335 0.711754 0.000000
0.821997 0.741747 0.000000
0.839830 0.764812 0.000000
0.868275 0.779272 0.000000
0.902749 0.791009 0.000000
0.947115 0.799020 0.000000
1.000000 0.805246 0.000000
0.000000 0.023176 0.000000
0.459906 0.030871 0.000000
0.672236 0.085559 0.000000
0.764850 0.160141 0.000000
0.799454 0.249746 0.000000
0.815956 0.343462 0.000000
0.802681 0.440802 0.000000
0.801282 0.507752 0.000000
0.775829 0.576736 0.000000
0.755794 0.627359 0.000000
0.737973 0.669610 0.000000
0.727585 0.705153 0.000000
0.717628 0.737246 0.000000
0.729082 0.768633 0.000000
0.750214 0.799513 0.000000
0.796703 0.826860 0.000000
0.856097 0.846924 0.000000
0.927689 0.855892 0.000000
1.000000 0.861321 0.000000
0.000000 0.028287 0.000000
0.441221 0.038030 0.000000
0.646801 0.096199 0.000000
0.741702 0.177958 0.000000
0.768660 0.270853 0.000000
0.783373 0.365802 0.000000
0.760388 0.456033 0.000000
0.751600 0.524252 0.000000
0.715727 0.580267 0.000000
0.685989 0.626391 0.000000
0.657235 0.667891 0.000000
0.638002 0.707954 0.000000
0.623993 0.746461 0.000000
0.634202 0.783365 0.000000
0.656572 0.815928 0.000000
0.704637 0.843601 0.000000
0.768801 0.868126 0.000000
0.869502 0.882317 0.000000
1.000000 0.889247 0.000000
0.000000 0.033702 0.000000
0.417531 0.045070 0.000000
0.617673 0.102513 0.000000
0.711805 0.188696 0.000000
0.737215 0.282428 0.000000
0.746506 0.375936 0.000000
0.719181 0.460191 0.000000
0.697069 0.527943 0.000000
0.649092 0.574477 0.000000
0.616528 0.617638 0.000000
0.580671 0.651591 0.000000
0.562479 0.688206 0.000000
0.539756 0.719221 0.000000
0.543923 0.760477 0.000000
0.559234 0.802780 0.000000
0.614344 0.846624 0.000000
0.693245 0.882887 0.000000
0.826654 0.901054 0.000000
1.000000 0.908355 0.000000
0.000000 0.039486 0.000000
0.382384 0.051497 0.000000
0.582104 0.102668 0.000000
0.672360 0.187186 0.000000
0.705124 0.272427 0.000000
0.707940 0.361985 0.000000
0.688216 0.437538 0.000000
0.659686 0.500363 0.000000
0.613999 0.541158 0.000000
0.571982 0.582907 0.000000
0.530667 0.618770 0.000000
0.499635 0.659670 0.000000
0.472113 0.697016 0.000000
0.475723 0.751583 0.000000
0.492212 0.801281 0.000000
0.550999 0.851109 0.000000
0.628115 0.892894 0.000000
0.782973 0.914366 0.000000
1.000000 0.923140 0.000000
0.000000 0.046312 0.000000
0.344004 0.058627 0.000000
0.541562 0.101283 0.000000
0.628102 0.181657 0.000000
0.669583 0.261980 0.000000
0.667862 0.342752 0.000000
0.651607 0.419262 0.000000
0.618801 0.469326 0.000000
0.576950 0.506010 0.000000
0.534947 0.543373 0.000000
0.493996 0.576986 0.000000
0.458794 0.614000 0.000000
0.425432 0.649066 0.000000
0.419800 0.715786 0.000000
0.423211 0.775861 0.000000
0.480401 0.841070 0.000000
0.562397 0.897548 0.000000
0.738791 0.924977 0.000000
1.000000 0.935462 0.000000
0.000000 0.054393 0.000000
0.305753 0.066465 0.000000
0.493302 0.100613 0.000000
0.575415 0.168949 0.000000
0.627388 0.244262 0.000000
0.626391 0.314026 0.000000
0.617668 0.383518 0.000000
0.582866 0.428065 0.000000
0.543347 0.465042 0.000000
0.499993 0.500032 0.000000
0.456598 0.534961 0.000000
0.417116 0.571952 0.000000
0.382374 0.616544 0.000000
0.373623 0.685986 0.000000
0.372595 0.755748 0.000000
0.424545 0.830966 0.000000
0.506577 0.899395 0.000000
0.694057 0.933572 0.000000
1.000000 0.945548 0.000000
0.000000 0.064539 0.000000
0.261321 0.075050 0.000000
0.437523 0.102486 0.000000
0.519570 0.158906 0.000000
0.576724 0.224089 0.000000
0.580241 0.284233 0.000000
0.574560 0.350942 0.000000
0.541199 0.385984 0.000000
0.505968 0.423037 0.000000
0.465068 0.456631 0.000000
0.423026 0.494006 0.000000
0.381174 0.530673 0.000000
0.348389 0.580682 0.000000
0.332146 0.657267 0.000000
0.330371 0.738046 0.000000
0.372023 0.818420 0.000000
0.458307 0.898731 0.000000
0.655801 0.941415 0.000000
1.000000 0.953666 0.000000
0.000000 0.076771 0.000000
0.216988 0.085604 0.000000
0.371983 0.107169 0.000000
0.449121 0.148981 0.000000
0.507741 0.198746 0.000000
0.524233 0.248419 0.000000
0.527897 0.302943 0.000000
0.500391 0.340320 0.000000
0.469316 0.381191 0.000000
0.428054 0.417131 0.000000
0.386009 0.458820 0.000000
0.340321 0.499661 0.000000
0.311781 0.562520 0.000000
0.292086 0.638012 0.000000
0.294837 0.727599 0.000000
0.327697 0.812881 0.000000
0.417849 0.897412 0.000000
0.617685 0.948625 0.000000
1.000000 0.960579 0.000000
0.000000 0.091255 0.000000
0.173380 0.098819 0.000000
0.306483 0.117058 0.000000
0.385763 0.153303 0.000000
0.440795 0.197320 0.000000
0.456037 0.239617 0.000000
0.460081 0.280838 0.000000
0.437530 0.311838 0.000000
0.419312 0.348427 0.000000
0.383466 0.382349 0.000000
0.350938 0.425431 0.000000
0.302975 0.472118 0.000000
0.280823 0.539857 0.000000
0.253469 0.623821 0.000000
0.262860 0.717723 0.000000
0.288181 0.811405 0.000000
0.382229 0.897576 0.000000
0.582509 0.955053 0.000000
1.000000 0.966348 0.000000
0.000000 0.110687 0.000000
0.130485 0.117617 0.000000
0.231249 0.131874 0.000000
0.295457 0.156384 0.000000
0.343439 0.183976 0.000000
0.365787 0.216586 0.000000
0.376101 0.253466 0.000000
0.362001 0.292076 0.000000
0.342760 0.332123 0.000000
0.313995 0.373603 0.000000
0.284261 0.419736 0.000000
0.248408 0.475755 0.000000
0.239599 0.543916 0.000000
0.216607 0.634194 0.000000
0.231484 0.729134 0.000000
0.258183 0.822018 0.000000
0.353182 0.903882 0.000000
0.558589 0.962040 0.000000
1.000000 0.971670 0.000000
0.000000 0.138692 0.000000
0.072331 0.144119 0.000000
0.143834 0.153013 0.000000
0.203300 0.173174 0.000000
0.249758 0.200661 0.000000
0.270887 0.231466 0.000000
0.282272 0.262869 0.000000
0.272358 0.294845 0.000000
0.261960 0.330393 0.000000
0.244243 0.372558 0.000000
0.224159 0.423209 0.000000
0.198746 0.492234 0.000000
0.197314 0.559239 0.000000
0.184004 0.656565 0.000000
0.200637 0.750230 0.000000
0.235139 0.839939 0.000000
0.327807 0.914522 0.000000
0.539680 0.969127 0.000000
1.000000 0.976739 0.000000
0.000000 0.194775 0.000000
0.052902 0.200943 0.000000
0.097283 0.209096 0.000000
0.131723 0.220723 0.000000
0.160078 0.235131 0.000000
0.177970 0.258223 0.000000
0.188589 0.288188 0.000000
0.187103 0.327710 0.000000
0.181617 0.371969 0.000000
0.169095 0.424517 0.000000
0.158941 0.480439 0.000000
0.148910 0.550984 0.000000
0.153347 0.614250 0.000000
0.156406 0.704566 0.000000
0.173161 0.796661 0.000000
0.220698 0.868306 0.000000
0.303059 0.929291 0.000000
0.529912 0.976896 0.000000
1.000000 0.982160 0.000000
0.000000 0.252891 0.000000
0.028570 0.262569 0.000000
0.051693 0.281199 0.000000
0.070685 0.303077 0.000000
0.085505 0.327777 0.000000
0.096128 0.353171 0.000000
0.102452 0.382229 0.000000
0.102616 0.417836 0.000000
0.101357 0.458248 0.000000
0.100643 0.506579 0.000000
0.102443 0.562413 0.000000
0.107094 0.628133 0.000000
0.117071 0.693248 0.000000
0.131864 0.768742 0.000000
0.153021 0.856120 0.000000
0.209085 0.902699 0.000000
0.281229 0.948361 0.000000
0.526691 0.984778 0.000000
1.000000 0.987986 0.000000
0.000000 0.527940 0.000000
0.007471 0.527096 0.000000
0.015228 0.526449 0.000000
0.023092 0.530057 0.000000
0.030878 0.539495 0.000000
0.037966 0.558443 0.000000
0.044957 0.582241 0.000000
0.051381 0.617508 0.000000
0.058611 0.655546 0.000000
0.066439 0.693966 0.000000
0.075020 0.738730 0.000000
0.085585 0.783001 0.000000
0.098870 0.826480 0.000000
0.117632 0.869455 0.000000
0.144156 0.927691 0.000000
0.200933 0.947066 0.000000
0.262527 0.971402 0.000000
0.527204 0.992534 0.000000
1.000000 0.993990 0.000000
0.000000 1.000000 0.000000
0.006014 1.000000 0.000000
0.012036 1.000000 0.000000
0.017879 1.000000 0.000000
0.023284 1.000000 0.000000
0.028317 1.000000 0.000000
0.033620 1.000000 0.000000
0.039402 1.000000 0.000000
0.046324 1.000000 0.000000
0.054420 1.000000 0.000000
0.064502 1.000000 0.000000
0.076825 1.000000 0.000000
0.091521 1.000000 0.000000
0.110724 1.000000 0.000000
0.138703 1.000000 0.000000
0.194844 1.000000 0.000000
0.252747 1.000000 0.000000
0.527947 1.000000 0.000000
1.000000 1.000000 0.000000
0.000000 0.000000 0.055219
0.472393 0.000000 0.055062
0.746989 0.000000 0.055054
0.805048 0.000000 0.055007
0.861229 0.000000 0.054979
0.889307 0.000000 0.054938
0.908735 0.000000 0.055032
0.923259 0.000000 0.055021
0.935464 0.000000 0.055082
0.945611 0.000000 0.055112
0.953776 0.000000 0.055058
0.960634 0.000000 0.054922
0.966374 0.000000 0.054936
0.971675 0.000000 0.054886
0.976765 0.000000 0.055008
0.982185 0.000000 0.054936
0.987994 0.000000 0.055081
0.993983 0.000000 0.055106
1.000000 0.000000 0.055104
0.000000 0.006012 0.055209
0.473053 0.007465 0.055078
0.737226 0.028704 0.055005
0.799027 0.052800 0.054970
0.855851 0.072410 0.055021
0.882378 0.130351 0.054943
0.901216 0.173320 0.055030
0.914405 0.217195 0.055052
0.924956 0.261385 0.054997
0.933561 0.306070 0.054971
0.941414 0.344338 0.055004
0.948602 0.382316 0.054967
0.954990 0.417936 0.054957
0.962001 0.441748 0.055000
0.969104 0.460591 0.055010
0.976916 0.469591 0.055012
0.984792 0.473030 0.055051
0.992535 0.473225 0.055056
1.000000 0.472596 0.055065
0.000000 0.012007 0.055101
0.473228 0.015212 0.055048
0.718776 0.051801 0.054993
0.790994 0.097248 0.054994
0.846913 0.143909 0.054997
0.868172 0.231226 0.055015
0.882926 0.306566 0.054974
0.892826 0.372021 0.054976
0.897545 0.437632 0.054950
0.899377 0.493385 0.054966
0.898773 0.541521 0.055016
0.897456 0.581966 0.054991
0.897437 0.617728 0.055030
0.903724 0.646796 0.055001
0.914365 0.672216 0.055016
0.929171 0.697047 0.055029
0.948209 0.718747 0.055019
0.971294 0.737180 0.055004
1.000000 0.746963 0.055035
0.000000 0.017803 0.054932
0.469775 0.023091 0.054994
0.697047 0.070830 0.054976
0.779262 0.131720 0.054963
0.826873 0.203345 0.055016
0.843618 0.295429 0.055019
0.846637 0.385697 0.054995
0.851069 0.449094 0.054999
0.841080 0.519564 0.054990
0.830993 0.575449 0.055033
0.818393 0.628044 0.054995
0.812874 0.672266 0.055012
0.811287 0.711884 0.055006
0.822068 0.741797 0.054963
0.839928 0.764877 0.054976
0.868270 0.779284 0.054952
0.902764 0.790990 0.054964
0.947212 0.799041 0.054971
1.000000 0.805073 0.055004
0.000000 0.023197 0.054939
0.460421 0.030885 0.054974
0.672199 0.085587 0.054992
0.764872 0.160087 0.054989
0.799418 0.249814 0.054978
0.815953 0.343378 0.055015
0.802726 0.440796 0.054987
0.801289 0.507778 0.054997
0.775868 0.576811 0.054997
0.755801 0.627371 0.055014
0.738005 0.669578 0.054991
0.727678 0.705125 0.055010
0.717658 0.737126 0.054999
0.729175 0.768551 0.055029
0.750165 0.799413 0.054993
0.796681 0.826895 0.055016
0.856093 0.846921 0.055018
0.927571 0.855836 0.054992
1.000000 0.861188 0.054984
0.000000 0.028266 0.054863
0.441789 0.038008 0.054963
0.646828 0.096284 0.054998
0.741781 0.177931 0.054979
0.768565 0.270882 0.055018
0.783398 0.365788 0.055007
0.760419 0.456101 0.054964
0.751604 0.524294 0.055021
0.715735 0.580263 0.055013
0.685958 0.626401 0.054978
0.657237 0.667913 0.054997
0.637964 0.707934 0.055016
0.623977 0.746541 0.055008
0.634198 0.783396 0.054992
0.656625 0.815960 0.054997
0.704531 0.843597 0.054978
0.768795 0.868172 0.054992
0.869673 0.882431 0.054991
1.000000 0.889401 0.055073
0.000000 0.033586 0.054903
0.417769 0.045005 0.054929
0.617702 0.102512 0.055050
0.711891 0.188739 0.055006
0.737131 0.282329 0.055002
0.746532 0.376043 0.055005
0.719186 0.460103 0.054991
0.697082 0.527883 0.055001
0.649061 0.574517 0.054990
0.616563 0.617661 0.055019
0.580708 0.651575 0.055012
0.562431 0.688136 0.054984
0.539907 0.719158 0.055004
0.543941 0.760408 0.054974
0.559180 0.802724 0.054994
0.614266 0.846644 0.055001
0.693461 0.882926 0.055004
0.826619 0.901242 0.054992
1.000000 0.908775 0.054967
0.000000 0.039356 0.054928
0.382337 0.051409 0.054962
0.582026 0.102560 0.055015
0.672248 0.187109 0.055020
0.705124 0.272303 0.054986
0.707924 0.362019 0.055009
0.688177 0.437559 0.054998
0.659695 0.500338 0.054997
0.614009 0.541172 0.054991
0.571974 0.582894 0.055005
0.530673 0.618765 0.055003
0.499645 0.659680 0.055000
0.472140 0.697088 0.054997
0.475725 0.751598 0.055000
0.492219 0.801276 0.054995
0.550914 0.851085 0.054965
0.627999 0.892820 0.054985
0.782819 0.914431 0.054994
1.000000 0.923369 0.055018
0.000000 0.046226 0.055032
0.344216 0.058582 0.055010
0.541530 0.101222 0.055034
0.628043 0.181628 0.055002
0.669567 0.261945 0.055046
0.667907 0.342742 0.055012
0.651588 0.419290 0.055022
0.618777 0.469337 0.054984
0.576962 0.505998 0.054995
0.534956 0.543362 0.054995
0.494014 0.576962 0.055003
0.458847 0.614019 0.055002
0.425482 0.649070 0.055016
0.419740 0.715742 0.055017
0.423222 0.775866 0.055016
0.480420 0.841080 0.054981
0.562356 0.897505 0.054990
0.738620 0.924988 0.055010
1.000000 0.935515 0.055009
0.000000 0.054372 0.055067
0.306010 0.066432 0.054981
0.493328 0.100583 0.055026
0.575454 0.168993 0.055000
0.627369 0.244252 0.055015
0.626405 0.314070 0.054997
0.617654 0.383462 0.055025
0.582892 0.428036 0.055000
0.543371 0.465047 0.055004
0.499995 0.500013 0.055012
0.456617 0.534958 0.055005
0.417100 0.571976 0.055004
0.382349 0.616559 0.054999
0.373607 0.685997 0.054986
0.372617 0.755788 0.055017
0.424567 0.831023 0.055005
0.506604 0.899355 0.055029
0.694138 0.933561 0.055023
1.000000 0.945678 0.055095
0.000000 0.064508 0.055043
0.261479 0.075042 0.054998
0.437593 0.102482 0.054997
0.519585 0.158904 0.054988
0.576779 0.224102 0.054991
0.580256 0.284240 0.054962
0.574524 0.350947 0.055006
0.541162 0.385979 0.054994
0.505985 0.423046 0.054978
0.465052 0.456629 0.055018
0.423046 0.494018 0.054985
0.381214 0.530651 0.055007
0.348432 0.580676 0.055004
0.332106 0.657210 0.054991
0.330409 0.737982 0.054981
0.371966 0.818409 0.054999
0.458513 0.898769 0.055010
0.655977 0.941389 0.054992
1.000000 0.953866 0.054990
0.000000 0.076759 0.054998
0.217186 0.085609 0.055047
0.372032 0.107190 0.055022
0.449108 0.148961 0.055003
0.507777 0.198714 0.054992
0.524274 0.248401 0.055005
0.527880 0.302898 0.055006
0.500385 0.340312 0.054993
0.469333 0.381227 0.054996
0.428018 0.417099 0.054997
0.385993 0.458848 0.054985
0.340291 0.499625 0.054985
0.311851 0.562479 0.055020
0.292062 0.638015 0.055005
0.294864 0.727627 0.055011
0.327763 0.812895 0.054984
0.417936 0.897373 0.055011
0.617692 0.948535 0.054994
1.000000 0.960694 0.055023
0.000000 0.091327 0.055032
0.173248 0.098838 0.055039
0.306492 0.117084 0.055007
0.385664 0.153355 0.055024
0.440790 0.197274 0.055010
0.456068 0.239605 0.055015
0.460076 0.280839 0.054962
0.437575 0.311869 0.055018
0.419293 0.348429 0.054998
0.383430 0.382346 0.055013
0.350950 0.425489 0.055009
0.302895 0.472131 0.054981
0.280828 0.539920 0.055020
0.253476 0.623954 0.055017
0.262823 0.717658 0.054977
0.288157 0.811299 0.055003
0.382238 0.897435 0.055000
0.582468 0.954954 0.055023
1.000000 0.966441 0.055000
0.000000 0.110691 0.054996
0.130496 0.117650 0.054991
0.231252 0.131890 0.054947
0.295422 0.156406 0.054959
0.343415 0.184050 0.054975
0.365816 0.216593 0.054996
0.375960 0.253469 0.054985
0.361999 0.292057 0.054987
0.342781 0.332079 0.055004
0.314027 0.373600 0.055006
0.284257 0.419737 0.054978
0.248377 0.475736 0.054984
0.239617 0.543925 0.055021
0.216587 0.634198 0.054977
0.231444 0.729137 0.055009
0.258176 0.822050 0.055008
0.353150 0.903682 0.054984
0.558407 0.961946 0.055031
1.000000 0.971801 0.055004
0.000000 0.138701 0.054981
0.072358 0.144123 0.055006
0.143850 0.153091 0.055038
0.203307 0.173176 0.055010
0.249825 0.200567 0.055006
0.270868 0.231428 0.055005
0.282310 0.262839 0.055018
0.272361 0.294866 0.055008
0.261981 0.330411 0.055006
0.244241 0.372585 0.055046
0.224135 0.423193 0.054984
0.198716 0.492212 0.055007
0.197271 0.559225 0.055003
0.184051 0.656600 0.054988
0.200557 0.750192 0.054997
0.235119 0.839929 0.054996
0.327697 0.914342 0.055008
0.539689 0.969066 0.055036
1.000000 0.976884 0.054983
0.000000 0.194799 0.054976
0.052849 0.200937 0.054974
0.097259 0.208980 0.054960
0.131697 0.220709 0.055002
0.160087 0.235134 0.054972
0.177927 0.258218 0.055012
0.188658 0.288176 0.054994
0.187098 0.327745 0.055008
0.181593 0.371956 0.055015
0.168972 0.424582 0.055005
0.158913 0.480431 0.054988
0.148954 0.550900 0.054992
0.153358 0.614314 0.055026
0.156407 0.704568 0.054939
0.173148 0.796676 0.055008
0.220706 0.868317 0.054990
0.302920 0.929188 0.055059
0.530456 0.976889 0.054997
1.000000 0.982234 0.055009
0.000000 0.252735 0.054993
0.028601 0.262671 0.055013
0.051683 0.281290 0.055046
0.070814 0.302883 0.055034
0.085613 0.327712 0.055021
0.096283 0.353148 0.054995
0.102535 0.382280 0.055038
0.102618 0.417945 0.055011
0.101248 0.458490 0.054990
0.100662 0.506569 0.055039
0.102499 0.562380 0.054996
0.107190 0.627935 0.054979
0.117066 0.693482 0.055058
0.131853 0.768782 0.054929
0.153057 0.856076 0.055038
0.208980 0.902746 0.054953
0.281356 0.948317 0.055055
0.526912 0.984779 0.054987
1.000000 0.987992 0.055066
0.000000 0.527717 0.055000
0.007449 0.527308 0.054969
0.015210 0.527083 0.055019
0.023116 0.530403 0.055028
0.030926 0.539785 0.055042
0.038046 0.558414 0.055032
0.045048 0.582340 0.055017
0.051458 0.617640 0.054956
0.058608 0.655889 0.054967
0.066447 0.694051 0.055053
0.075022 0.738591 0.055006
0.085598 0.782816 0.055011
0.098795 0.826732 0.055012
0.117609 0.869571 0.054972
0.144108 0.927643 0.054999
0.200931 0.947120 0.054984
0.262672 0.971412 0.054997
0.527288 0.992544 0.054963
1.000000 0.993980 0.054964
0.000000 1.000000 0.054822
0.006028 1.000000 0.054889
0.012020 1.000000 0.055022
0.017783 1.000000 0.055070
0.023144 1.000000 0.055049
0.028232 1.000000 0.055000
0.033567 1.000000 0.054879
0.039316 1.000000 0.054951
0.046161 1.000000 0.054970
0.054361 1.000000 0.055081
0.064545 1.000000 0.054993
0.076714 1.000000 0.054980
0.091301 1.000000 0.054966
0.110643 1.000000 0.055081
0.138733 1.000000 0.054961
0.194763 1.000000 0.055018
0.252731 1.000000 0.054968
0.527748 1.000000 0.054991
1.000000 1.000000 0.054888
0.000000 0.000000 0.109987
0.472195 0.000000 0.109965
0.747369 0.000000 0.110035
0.805243 0.000000 0.109844
0.861297 0.000000 0.110070
0.889298 0.000000 0.109895
0.908605 0.000000 0.110056
0.923191 0.000000 0.110067
0.935467 0.000000 0.110010
0.945675 0.000000 0.109974
0.953861 0.000000 0.110072
0.960689 0.000000 0.109987
0.966414 0.000000 0.109913
0.971723 0.000000 0.109986
0.976760 0.000000 0.109954
0.982131 0.000000 0.110014
0.987924 0.000000 0.109932