# vtk DataFile Version 2.0
Mesh for Fierro
ASCII 
DATASET UNSTRUCTURED_GRID

POINTS 2527 float
0.000000 0.000000 0.000000
0.496468 0.000000 0.000000
0.800344 0.000000 0.000000
0.840957 0.000000 0.000000
0.882269 0.000000 0.000000
0.905479 0.000000 0.000000
0.921482 0.000000 0.000000
0.934018 0.000000 0.000000
0.944802 0.000000 0.000000
0.953494 0.000000 0.000000
0.960520 0.000000 0.000000
0.966221 0.000000 0.000000
0.970886 0.000000 0.000000
0.975243 0.000000 0.000000
0.979556 0.000000 0.000000
0.984499 0.000000 0.000000
0.989899 0.000000 0.000000
0.995228 0.000000 0.000000
1.000000 0.000000 0.000000
0.000000 0.004735 0.000000
0.499363 0.006869 0.000000
0.784405 0.031441 0.000000
0.825247 0.069189 0.000000
0.874052 0.079021 0.000000
0.895658 0.153257 0.000000
0.911500 0.197946 0.000000
0.922131 0.246829 0.000000
0.930545 0.296058 0.000000
0.937496 0.344451 0.000000
0.943995 0.386041 0.000000
0.950049 0.427244 0.000000
0.955848 0.464309 0.000000
0.962596 0.488988 0.000000
0.969643 0.507080 0.000000
0.977598 0.512627 0.000000
0.985449 0.512389 0.000000
0.993159 0.499304 0.000000
1.000000 0.495923 0.000000
0.000000 0.010076 0.000000
0.511761 0.014538 0.000000
0.759680 0.053618 0.000000
0.809428 0.115701 0.000000
0.866221 0.160364 0.000000
0.880530 0.267129 0.000000
0.891512 0.347946 0.000000
0.898014 0.418243 0.000000
0.899792 0.486742 0.000000
0.899396 0.542317 0.000000
0.896472 0.588650 0.000000
0.893410 0.625456 0.000000
0.892539 0.657181 0.000000
0.897846 0.684399 0.000000
0.910739 0.707674 0.000000
0.926715 0.733791 0.000000
0.946473 0.759501 0.000000
0.968588 0.784579 0.000000
1.000000 0.800751 0.000000
0.000000 0.015476 0.000000
0.512961 0.022445 0.000000
0.733875 0.073401 0.000000
0.800734 0.151110 0.000000
0.846798 0.228877 0.000000
0.854557 0.333723 0.000000
0.851889 0.428467 0.000000
0.852473 0.491152 0.000000
0.838007 0.559208 0.000000
0.823147 0.612872 0.000000
0.805474 0.663268 0.000000
0.796239 0.706001 0.000000
0.793486 0.742257 0.000000
0.801247 0.770937 0.000000
0.820724 0.789230 0.000000
0.848885 0.800702 0.000000
0.884389 0.809415 0.000000
0.930779 0.825156 0.000000
1.000000 0.841021 0.000000
0.000000 0.020420 0.000000
0.507223 0.030355 0.000000
0.707556 0.089375 0.000000
0.789331 0.179264 0.000000
0.816386 0.280057 0.000000
0.826624 0.379996 0.000000
0.803791 0.481558 0.000000
0.797923 0.546558 0.000000
0.766381 0.612933 0.000000
0.739364 0.659822 0.000000
0.717837 0.697794 0.000000
0.702697 0.728539 0.000000
0.691487 0.755265 0.000000
0.700013 0.784711 0.000000
0.719889 0.816470 0.000000
0.771274 0.846750 0.000000
0.839572 0.866181 0.000000
0.921047 0.874273 0.000000
1.000000 0.882697 0.000000
0.000000 0.024726 0.000000
0.488793 0.037368 0.000000
0.684298 0.102143 0.000000
0.770883 0.198667 0.000000
0.784750 0.299887 0.000000
0.795352 0.400933 0.000000
0.760494 0.490633 0.000000
0.747263 0.557771 0.000000
0.706181 0.607278 0.000000
0.668771 0.648081 0.000000
0.634553 0.685667 0.000000
0.608774 0.722688 0.000000
0.592009 0.759655 0.000000
0.599059 0.795333 0.000000
0.620054 0.826578 0.000000
0.666182 0.854583 0.000000
0.732815 0.880542 0.000000
0.846405 0.895571 0.000000
1.000000 0.905355 0.000000
0.000000 0.029071 0.000000
0.464287 0.044141 0.000000
0.657085 0.107491 0.000000
0.742298 0.206541 0.000000
0.755226 0.308573 0.000000
0.759690 0.407950 0.000000
0.720883 0.489465 0.000000
0.691649 0.555961 0.000000
0.636185 0.595092 0.000000
0.597465 0.633565 0.000000
0.557411 0.662030 0.000000
0.535597 0.695190 0.000000
0.510469 0.720927 0.000000
0.509328 0.760599 0.000000
0.518448 0.803911 0.000000
0.571662 0.851974 0.000000
0.651901 0.891615 0.000000
0.802271 0.911401 0.000000
1.000000 0.921069 0.000000
0.000000 0.033752 0.000000
0.427058 0.049947 0.000000
0.625343 0.106560 0.000000
0.706068 0.203791 0.000000
0.728500 0.297320 0.000000
0.722693 0.391197 0.000000
0.695173 0.464384 0.000000
0.658178 0.524653 0.000000
0.606897 0.557768 0.000000
0.558250 0.592238 0.000000
0.511957 0.621958 0.000000
0.475359 0.658153 0.000000
0.444095 0.691589 0.000000
0.442204 0.747253 0.000000
0.453415 0.797908 0.000000
0.508972 0.852577 0.000000
0.581658 0.898123 0.000000
0.753089 0.922129 0.000000
1.000000 0.933916 0.000000
0.000000 0.039488 0.000000
0.385882 0.056011 0.000000
0.588587 0.103506 0.000000
0.663293 0.194476 0.000000
0.697770 0.282128 0.000000
0.685654 0.365413 0.000000
0.662083 0.442547 0.000000
0.622000 0.488025 0.000000
0.574936 0.517632 0.000000
0.527564 0.547870 0.000000
0.482366 0.574976 0.000000
0.442181 0.606904 0.000000
0.404832 0.636175 0.000000
0.392773 0.706262 0.000000
0.386979 0.766367 0.000000
0.440795 0.837963 0.000000
0.512832 0.899794 0.000000
0.703805 0.930613 0.000000
1.000000 0.944665 0.000000
0.000000 0.046523 0.000000
0.344596 0.062518 0.000000
0.542328 0.100619 0.000000
0.612945 0.176863 0.000000
0.659836 0.260692 0.000000
0.648074 0.331250 0.000000
0.633567 0.402581 0.000000
0.592182 0.441791 0.000000
0.547842 0.472433 0.000000
0.499986 0.500027 0.000000
0.452098 0.527577 0.000000
0.407772 0.558224 0.000000
0.366478 0.597449 0.000000
0.351942 0.668763 0.000000
0.340140 0.739295 0.000000
0.387026 0.823060 0.000000
0.457480 0.899366 0.000000
0.655117 0.937511 0.000000
1.000000 0.953458 0.000000
0.000000 0.055231 0.000000
0.296338 0.069479 0.000000
0.487009 0.100276 0.000000
0.559250 0.162038 0.000000
0.612937 0.233523 0.000000
0.607278 0.293759 0.000000
0.595152 0.363853 0.000000
0.557819 0.393092 0.000000
0.517591 0.425035 0.000000
0.472459 0.452146 0.000000
0.425038 0.482372 0.000000
0.378021 0.511954 0.000000
0.337929 0.557472 0.000000
0.314356 0.634604 0.000000
0.302207 0.717890 0.000000
0.336778 0.805638 0.000000
0.411349 0.896562 0.000000
0.613871 0.944035 0.000000
1.000000 0.960567 0.000000
0.000000 0.065916 0.000000
0.246913 0.077861 0.000000
0.418404 0.101959 0.000000
0.491162 0.147524 0.000000
0.546548 0.202136 0.000000
0.557727 0.252779 0.000000
0.555903 0.308335 0.000000
0.524677 0.341828 0.000000
0.488037 0.378017 0.000000
0.441767 0.407801 0.000000
0.393110 0.442189 0.000000
0.341817 0.475391 0.000000
0.304805 0.535664 0.000000
0.277325 0.608769 0.000000
0.271472 0.702777 0.000000
0.294017 0.796300 0.000000
0.374543 0.893514 0.000000
0.573031 0.950130 0.000000
1.000000 0.966296 0.000000
0.000000 0.078469 0.000000
0.197784 0.088411 0.000000
0.347850 0.108336 0.000000
0.428447 0.147925 0.000000
0.481573 0.196184 0.000000
0.490627 0.239494 0.000000
0.489408 0.279152 0.000000
0.464367 0.304875 0.000000
0.442566 0.337982 0.000000
0.402531 0.366451 0.000000
0.363858 0.404828 0.000000
0.308381 0.444116 0.000000
0.279124 0.510525 0.000000
0.240329 0.591809 0.000000
0.244795 0.691564 0.000000
0.257671 0.793533 0.000000
0.342756 0.892569 0.000000
0.535745 0.955910 0.000000
1.000000 0.970918 0.000000
0.000000 0.094483 0.000000
0.153484 0.104313 0.000000
0.267243 0.119473 0.000000
0.333961 0.145436 0.000000
0.379955 0.173344 0.000000
0.400944 0.204593 0.000000
0.408074 0.240300 0.000000
0.391249 0.277322 0.000000
0.365444 0.314328 0.000000
0.331203 0.351892 0.000000
0.293805 0.392731 0.000000
0.252765 0.442232 0.000000
0.239446 0.509346 0.000000
0.204637 0.599014 0.000000
0.215423 0.700133 0.000000
0.229008 0.801298 0.000000
0.315618 0.898003 0.000000
0.510907 0.962650 0.000000
1.000000 0.975224 0.000000
0.000000 0.117658 0.000000
0.078998 0.125853 0.000000
0.160378 0.133796 0.000000
0.228717 0.153290 0.000000
0.280095 0.183665 0.000000
0.299853 0.215387 0.000000
0.308449 0.244828 0.000000
0.297190 0.271478 0.000000
0.282112 0.302197 0.000000
0.260710 0.340120 0.000000
0.233649 0.386978 0.000000
0.202117 0.453451 0.000000
0.196162 0.518426 0.000000
0.173368 0.620054 0.000000
0.183669 0.719961 0.000000
0.210694 0.820812 0.000000
0.292405 0.910819 0.000000
0.492370 0.969631 0.000000
1.000000 0.979530 0.000000
0.000000 0.159152 0.000000
0.069313 0.174741 0.000000
0.115692 0.190688 0.000000
0.151091 0.199364 0.000000
0.179208 0.210710 0.000000
0.198692 0.229054 0.000000
0.206464 0.257701 0.000000
0.203690 0.294011 0.000000
0.194429 0.336727 0.000000
0.177006 0.386996 0.000000
0.162058 0.440835 0.000000
0.147453 0.508945 0.000000
0.147948 0.571584 0.000000
0.145443 0.666071 0.000000
0.153268 0.771164 0.000000
0.199357 0.848946 0.000000
0.266299 0.926906 0.000000
0.486890 0.977553 0.000000
1.000000 0.984502 0.000000
0.000000 0.199961 0.000000
0.031514 0.215551 0.000000
0.053570 0.240393 0.000000
0.073071 0.266378 0.000000
0.089251 0.292326 0.000000
0.101988 0.315632 0.000000
0.107475 0.342722 0.000000
0.106494 0.374545 0.000000
0.103519 0.411288 0.000000
0.100672 0.457487 0.000000
0.100209 0.512855 0.000000
0.101848 0.581698 0.000000
0.108329 0.651895 0.000000
0.119440 0.732705 0.000000
0.133828 0.839582 0.000000
0.190671 0.884284 0.000000
0.240434 0.946559 0.000000
0.487536 0.985370 0.000000
1.000000 0.989934 0.000000
0.000000 0.503901 0.000000
0.006894 0.500006 0.000000
0.014633 0.487265 0.000000
0.022426 0.487096 0.000000
0.030379 0.492219 0.000000
0.037373 0.510737 0.000000
0.044111 0.535460 0.000000
0.049890 0.572825 0.000000
0.055969 0.613579 0.000000
0.062468 0.654982 0.000000
0.069352 0.703736 0.000000
0.077782 0.753124 0.000000
0.088408 0.802008 0.000000
0.104326 0.846404 0.000000
0.125883 0.921055 0.000000
0.174753 0.930672 0.000000
0.215506 0.968506 0.000000
0.500138 0.993101 0.000000
1.000000 0.995207 0.000000
0.000000 1.000000 0.000000
0.004799 1.000000 0.000000
0.010082 1.000000 0.000000
0.015490 1.000000 0.000000
0.020462 1.000000 0.000000
0.024734 1.000000 0.000000
0.029032 1.000000 0.000000
0.033633 1.000000 0.000000
0.039349 1.000000 0.000000
0.046451 1.000000 0.000000
0.055213 1.000000 0.000000
0.065897 1.000000 0.000000
0.078669 1.000000 0.000000
0.094576 1.000000 0.000000
0.117503 1.000000 0.000000
0.159180 1.000000 0.000000
0.199806 1.000000 0.000000
0.503876 1.000000 0.000000
1.000000 1.000000 0.000000
0.000000 0.000000 0.055228
0.496510 0.000000 0.055036
0.799492 0.000000 0.055004
0.840640 0.000000 0.055013
0.882325 0.000000 0.054983
[...]
POINT_DATA 2527 
VECTORS pos float 
0.000000 0.000000 0.000000
0.496468 0.000000 0.000000
0.800344 0.000000 0.000000
0.840957 0.000000 0.000000
0.882269 0.000000 0.000000
0.905479 0.000000 0.000000
0.921482 0.000000 0.000000
0.934018 0.000000 0.000000
0.944802 0.000000 0.000000
0.953494 0.000000 0.000000
0.960520 0.000000 0.000000
0.966221 0.000000 0.000000
0.970886 0.000000 0.000000
0.975243 0.000000 0.000000
0.979556 0.000000 0.000000
0.984499 0.000000 0.000000
0.989899 0.000000 0.000000
0.995228 0.000000 0.000000
1.000000 0.000000 0.000000
0.000000 0.004735 0.000000
0.499363 0.006869 0.000000
0.784405 0.031441 0.000000
0.825247 0.069189 0.000000
0.874052 0.079021 0.000000
0.895658 0.153257 0.000000
0.911500 0.197946 0.000000
0.922131 0.246829 0.000000
0.930545 0.296058 0.000000
0.937496 0.344451 0.000000
0.943995 0.386041 0.000000
0.950049 0.427244 0.000000
0.955848 0.464309 0.000000
0.962596 0.488988 0.000000
0.969643 0.507080 0.000000
0.977598 0.512627 0.000000
0.985449 0.512389 0.000000
0.993159 0.499304 0.000000
1.000000 0.495923 0.000000
0.000000 0.010076 0.000000
0.511761 0.014538 0.000000
0.759680 0.053618 0.000000
0.809428 0.115701 0.000000
0.866221 0.160364 0.000000
0.880530 0.267129 0.000000
0.891512 0.347946 0.000000
0.898014 0.418243 0.000000
0.899792 0.486742 0.000000
0.899396 0.542317 0.000000
0.896472 0.588650 0.000000
0.893410 0.625456 0.000000
0.892539 0.657181 0.000000
0.897846 0.684399 0.000000
0.910739 0.707674 0.000000
0.926715 0.733791 0.000000
0.946473 0.759501 0.000000
0.968588 0.784579 0.000000
1.000000 0.800751 0.000000
0.000000 0.015476 0.000000
0.512961 0.022445 0.000000
0.733875 0.073401 0.000000
0.800734 0.151110 0.000000
0.846798 0.228877 0.000000
0.854557 0.333723 0.000000
0.851889 0.428467 0.000000
0.852473 0.491152 0.000000
0.838007 0.559208 0.000000
0.823147 0.612872 0.000000
0.805474 0.663268 0.000000
0.796239 0.706001 0.000000
0.793486 0.742257 0.000000
0.801247 0.770937 0.000000
0.820724 0.789230 0.000000
0.848885 0.800702 0.000000
0.884389 0.809415 0.000000
0.930779 0.825156 0.000000
1.000000 0.841021 0.000000
0.000000 0.020420 0.000000
0.507223 0.030355 0.000000
0.707556 0.089375 0.000000
0.789331 0.179264 0.000000
0.816386 0.280057 0.000000
0.826624 0.379996 0.000000
0.803791 0.481558 0.000000
0.797923 0.546558 0.000000
0.766381 0.612933 0.000000
0.739364 0.659822 0.000000
0.717837 0.697794 0.000000
0.702697 0.728539 0.000000
0.691487 0.755265 0.000000
0.700013 0.784711 0.000000
0.719889 0.816470 0.000000
0.771274 0.846750 0.000000
0.839572 0.866181 0.000000
0.921047 0.874273 0.000000
1.000000 0.882697 0.000000
0.000000 0.024726 0.000000
0.488793 0.037368 0.000000
0.684298 0.102143 0.000000
0.770883 0.198667 0.000000
0.784750 0.299887 0.000000
0.795352 0.400933 0.000000
0.760494 0.490633 0.000000
0.747263 0.557771 0.000000
0.706181 0.607278 0.000000
0.668771 0.648081 0.000000
0.634553 0.685667 0.000000
0.608774 0.722688 0.000000
0.592009 0.759655 0.000000
0.599059 0.795333 0.000000
0.620054 0.826578 0.000000
0.666182 0.854583 0.000000
0.732815 0.880542 0.000000
0.846405 0.895571 0.000000
1.000000 0.905355 0.000000
0.000000 0.029071 0.000000
0.464287 0.044141 0.000000
0.657085 0.107491 0.000000
0.742298 0.206541 0.000000
0.755226 0.308573 0.000000
0.759690 0.407950 0.000000
0.720883 0.489465 0.000000
0.691649 0.555961 0.000000
0.636185 0.595092 0.000000
0.597465 0.633565 0.000000
0.557411 0.662030 0.000000
0.535597 0.695190 0.000000
0.510469 0.720927 0.000000
0.509328 0.760599 0.000000
0.518448 0.803911 0.000000
0.571662 0.851974 0.000000
0.651901 0.891615 0.000000
0.802271 0.911401 0.000000
1.000000 0.921069 0.000000
0.000000 0.033752 0.000000
0.427058 0.049947 0.000000
0.625343 0.106560 0.000000
0.706068 0.203791 0.000000
0.728500 0.297320 0.000000
0.722693 0.391197 0.000000
0.695173 0.464384 0.000000
0.658178 0.524653 0.000000
0.606897 0.557768 0.000000
0.558250 0.592238 0.000000
0.511957 0.621958 0.000000
0.475359 0.658153 0.000000
0.444095 0.691589 0.000000
0.442204 0.747253 0.000000
0.453415 0.797908 0.000000
0.508972 0.852577 0.000000
0.581658 0.898123 0.000000
0.753089 0.922129 0.000000
1.000000 0.933916 0.000000
0.000000 0.039488 0.000000
0.385882 0.056011 0.000000
0.588587 0.103506 0.000000
0.663293 0.194476 0.000000
0.697770 0.282128 0.000000
0.685654 0.365413 0.000000
0.662083 0.442547 0.000000
0.622000 0.488025 0.000000
0.574936 0.517632 0.000000
0.527564 0.547870 0.000000
0.482366 0.574976 0.000000
0.442181 0.606904 0.000000
0.404832 0.636175 0.000000
0.392773 0.706262 0.000000
0.386979 0.766367 0.000000
0.440795 0.837963 0.000000
0.512832 0.899794 0.000000
0.703805 0.930613 0.000000
1.000000 0.944665 0.000000
0.000000 0.046523 0.000000
0.344596 0.062518 0.000000
0.542328 0.100619 0.000000
0.612945 0.176863 0.000000
0.659836 0.260692 0.000000
0.648074 0.331250 0.000000
0.633567 0.402581 0.000000
0.592182 0.441791 0.000000
0.547842 0.472433 0.000000
0.499986 0.500027 0.000000
0.452098 0.527577 0.000000
0.407772 0.558224 0.000000
0.366478 0.597449 0.000000
0.351942 0.668763 0.000000
0.340140 0.739295 0.000000
0.387026 0.823060 0.000000
0.457480 0.899366 0.000000
0.655117 0.937511 0.000000
1.000000 0.953458 0.000000
0.000000 0.055231 0.000000
0.296338 0.069479 0.000000
0.487009 0.100276 0.000000
0.559250 0.162038 0.000000
0.612937 0.233523 0.000000
0.607278 0.293759 0.000000
0.595152 0.363853 0.000000
0.557819 0.393092 0.000000
0.517591 0.425035 0.000000
0.472459 0.452146 0.000000
0.425038 0.482372 0.000000
0.378021 0.511954 0.000000
0.337929 0.557472 0.000000
0.314356 0.634604 0.000000
0.302207 0.717890 0.000000
0.336778 0.805638 0.000000
0.411349 0.896562 0.000000
0.613871 0.944035 0.000000
1.000000 0.960567 0.000000
0.000000 0.065916 0.000000
0.246913 0.077861 0.000000
0.418404 0.101959 0.000000
0.491162 0.147524 0.000000
0.546548 0.202136 0.000000
0.557727 0.252779 0.000000
0.555903 0.308335 0.000000
0.524677 0.341828 0.000000
0.488037 0.378017 0.000000
0.441767 0.407801 0.000000
0.393110 0.442189 0.000000
0.341817 0.475391 0.000000
0.304805 0.535664 0.000000
0.277325 0.608769 0.000000
0.271472 0.702777 0.000000
0.294017 0.796300 0.000000
0.374543 0.893514 0.000000
0.573031 0.950130 0.000000
1.000000 0.966296 0.000000
0.000000 0.078469 0.000000
0.197784 0.088411 0.000000
0.347850 0.108336 0.000000
0.428447 0.147925 0.000000
0.481573 0.196184 0.000000
0.490627 0.239494 0.000000
0.489408 0.279152 0.000000
0.464367 0.304875 0.000000
0.442566 0.337982 0.000000
0.402531 0.366451 0.000000
0.363858 0.404828 0.000000
0.308381 0.444116 0.000000
0.279124 0.510525 0.000000
0.240329 0.591809 0.000000
0.244795 0.691564 0.000000
0.257671 0.793533 0.000000
0.342756 0.892569 0.000000
0.535745 0.955910 0.000000
1.000000 0.970918 0.000000
0.000000 0.094483 0.000000
0.153484 0.104313 0.000000
0.267243 0.119473 0.000000
0.333961 0.145436 0.000000
0.379955 0.173344 0.000000
0.400944 0.204593 0.000000
0.408074 0.240300 0.000000
0.391249 0.277322 0.000000
0.365444 0.314328 0.000000
0.331203 0.351892 0.000000
0.293805 0.392731 0.000000
0.252765 0.442232 0.000000
0.239446 0.509346 0.000000
0.204637 0.599014 0.000000
0.215423 0.700133 0.000000
0.229008 0.801298 0.000000
0.315618 0.898003 0.000000
0.510907 0.962650 0.000000
1.000000 0.975224 0.000000
0.000000 0.117658 0.000000
0.078998 0.125853 0.000000
0.160378 0.133796 0.000000
0.228717 0.153290 0.000000
0.280095 0.183665 0.000000
0.299853 0.215387 0.000000
0.308449 0.244828 0.000000
0.297190 0.271478 0.000000
0.282112 0.302197 0.000000
0.260710 0.340120 0.000000
0.233649 0.386978 0.000000
0.202117 0.453451 0.000000
0.196162 0.518426 0.000000
0.173368 0.620054 0.000000
0.183669 0.719961 0.000000
0.210694 0.820812 0.000000
0.292405 0.910819 0.000000
0.492370 0.969631 0.000000
1.000000 0.979530 0.000000
0.000000 0.159152 0.000000
0.069313 0.174741 0.000000
0.115692 0.190688 0.000000
0.151091 0.199364 0.000000
0.179208 0.210710 0.000000
0.198692 0.229054 0.000000
0.206464 0.257701 0.000000
0.203690 0.294011 0.000000
0.194429 0.336727 0.000000
0.177006 0.386996 0.000000
0.162058 0.440835 0.000000
0.147453 0.508945 0.000000
0.147948 0.571584 0.000000
0.145443 0.666071 0.000000
0.153268 0.771164 0.000000
0.199357 0.848946 0.000000
0.266299 0.926906 0.000000
0.486890 0.977553 0.000000
1.000000 0.984502 0.000000
0.000000 0.199961 0.000000
0.031514 0.215551 0.000000
0.053570 0.240393 0.000000
0.073071 0.266378 0.000000
0.089251 0.292326 0.000000
0.101988 0.315632 0.000000
0.107475 0.342722 0.000000
0.106494 0.374545 0.000000
0.103519 0.411288 0.000000
0.100672 0.457487 0.000000
0.100209 0.512855 0.000000
0.101848 0.581698 0.000000
0.108329 0.651895 0.000000
0.119440 0.732705 0.000000
0.133828 0.839582 0.000000
0.190671 0.884284 0.000000
0.240434 0.946559 0.000000
0.487536 0.985370 0.000000
1.000000 0.989934 0.000000
0.000000 0.503901 0.000000
0.006894 0.500006 0.000000
0.014633 0.487265 0.000000
0.022426 0.487096 0.000000
0.030379 0.492219 0.000000
0.037373 0.510737 0.000000
0.044111 0.535460 0.000000
0.049890 0.572825 0.000000
0.055969 0.613579 0.000000
0.062468 0.654982 0.000000
0.069352 0.703736 0.000000
0.077782 0.753124 0.000000
0.088408 0.802008 0.000000
0.104326 0.846404 0.000000
0.125883 0.921055 0.000000
0.174753 0.930672 0.000000
0.215506 0.968506 0.000000
0.500138 0.993101 0.000000
1.000000 0.995207 0.000000
0.000000 1.000000 0.000000
0.004799 1.000000 0.000000
0.010082 1.000000 0.000000
0.015490 1.000000 0.000000
0.020462 1.000000 0.000000
0.024734 1.000000 0.000000
0.029032 1.000000 0.000000
0.033633 1.000000 0.000000
0.039349 1.000000 0.000000
0.046451 1.000000 0.000000
0.055213 1.000000 0.000000
0.065897 1.000000 0.000000
0.078669 1.000000 0.000000
0.094576 1.000000 0.000000
0.117503 1.000000 0.000000
0.159180 1.000000 0.000000
0.199806 1.000000 0.000000
0.503876 1.000000 0.000000
1.000000 1.000000 0.000000
0.000000 0.000000 0.055228
0.496510 0.000000 0.055036
0.799492 0.000000 0.055004
0.840640 0.000000 0.055013
0.882325 0.000000 0.054983
0.905598 0.000000 0.054861
0.921687 0.000000 0.055075
0.934239 0.000000 0.055068
0.944868 0.000000 0.055119
0.953590 0.000000 0.055159
0.960684 0.000000 0.055068
0.966386 0.000000 0.054922
0.971001 0.000000 0.054893
0.975302 0.000000 0.054852
0.979575 0.000000 0.054961
0.984540 0.000000 0.054902
0.989955 0.000000 0.055013
0.995252 0.000000 0.055064
1.000000 0.000000 0.055090
0.000000 0.004766 0.055199
0.500102 0.006899 0.055083
0.784142 0.031573 0.055012
0.825192 0.069222 0.054955
0.874144 0.079021 0.055064
0.895754 0.153367 0.054880
0.911692 0.197735 0.055057
0.922201 0.247170 0.055087
0.930597 0.296388 0.055013
0.937529 0.344991 0.054980
0.944041 0.386305 0.055010
0.950125 0.427028 0.054959
0.955869 0.464774 0.054951
0.962609 0.489462 0.054995
0.969594 0.507915 0.055013
0.977542 0.512486 0.055001
0.985383 0.512068 0.055072
0.993087 0.500299 0.055077
1.000000 0.496793 0.055059
0.000000 0.010064 0.055059
0.512412 0.014629 0.055077
0.759557 0.053640 0.055006
0.809418 0.115691 0.055008
0.866162 0.160403 0.055001
0.880573 0.267217 0.055024
0.891674 0.347920 0.054961
0.898035 0.418451 0.054958
0.899737 0.487159 0.054957
0.899345 0.542387 0.054961
0.896551 0.588519 0.055011
0.893542 0.625257 0.054982
0.892448 0.657161 0.055026
0.897825 0.684327 0.055009
0.910474 0.707665 0.055020
0.926639 0.733788 0.055041
0.946380 0.759479 0.055037
0.968420 0.784064 0.055005
1.000000 0.799422 0.055033
0.000000 0.015476 0.054910
0.512788 0.022462 0.054999
0.733788 0.073363 0.054979
0.800676 0.151112 0.054946
0.846757 0.228808 0.055028
0.854589 0.333870 0.055028
0.851989 0.428390 0.054978
0.852505 0.491136 0.054992
0.837963 0.559199 0.054987
0.823064 0.612992 0.055035
0.805597 0.663252 0.055003
0.796281 0.705993 0.055011
0.793473 0.742353 0.055010
0.801327 0.770985 0.054962
0.820790 0.789325 0.054970
0.848873 0.800692 0.054926
0.884303 0.809421 0.054948
0.930787 0.825206 0.054957
1.000000 0.840665 0.055025
0.000000 0.020435 0.054913
0.507713 0.030394 0.054977
0.707638 0.089481 0.055004
0.789302 0.179216 0.054983
0.816385 0.280170 0.054973
0.826593 0.379900 0.055019
0.803863 0.481552 0.054985
0.797908 0.546592 0.054997
0.766390 0.613021 0.054997
0.739344 0.659815 0.055025
0.717846 0.697754 0.054986
0.702837 0.728504 0.055013
0.691497 0.755153 0.054999
0.700183 0.784629 0.055023
0.719791 0.816380 0.054998
0.771210 0.846785 0.055031
0.839654 0.866154 0.055028
0.920944 0.874085 0.054963
1.000000 0.882164 0.054947
0.000000 0.024710 0.054838
0.489460 0.037402 0.054956
0.684319 0.102182 0.055011
0.770973 0.198681 0.054974
0.784625 0.299893 0.055013
0.795366 0.400935 0.055017
0.760536 0.490691 0.054958
0.747255 0.557810 0.055014
0.706209 0.607278 0.055014
0.668720 0.648102 0.054976
0.634567 0.685715 0.054994
0.608722 0.722676 0.055014
0.591984 0.759716 0.055008
0.599056 0.795362 0.054990
0.620115 0.826600 0.054990
0.666091 0.854569 0.054975
0.732789 0.880590 0.054999
0.846689 0.895805 0.055010
1.000000 0.905654 0.055218
0.000000 0.029012 0.054869
0.464562 0.044118 0.054923
0.657152 0.107511 0.055050
0.742352 0.206548 0.055015
0.755156 0.308499 0.054990
0.759705 0.408021 0.055005
0.720901 0.489425 0.054990
0.691683 0.555891 0.055003
0.636167 0.595107 0.054991
0.597501 0.633562 0.055010
0.557456 0.662033 0.055008
0.535585 0.695109 0.054983
0.510594 0.720874 0.055011
0.509330 0.760544 0.054964
0.518402 0.803849 0.055004
0.571586 0.851987 0.055007
0.652147 0.891662 0.054999
0.802152 0.911792 0.054980
1.000000 0.921876 0.054936
0.000000 0.033636 0.054918
0.427016 0.049880 0.054956
0.625298 0.106471 0.055014
0.705981 0.203700 0.055025
0.728507 0.297142 0.054988
0.722669 0.391261 0.055000
0.695151 0.464411 0.055000
0.658185 0.524615 0.054991
0.606907 0.557787 0.054999
0.558236 0.592226 0.055009
0.511974 0.621936 0.055007
0.475375 0.658163 0.055003
0.444120 0.691691 0.054996
0.442218 0.747245 0.055004
0.453410 0.797908 0.054985
0.508881 0.852527 0.054959
0.581570 0.898014 0.054987
0.752845 0.922241 0.054976
1.000000 0.934355 0.054944
0.000000 0.039345 0.055022
0.386133 0.055958 0.055011
0.588523 0.103436 0.055030
0.663246 0.194422 0.055012
0.697741 0.282116 0.055041
0.685721 0.365404 0.055028
0.662050 0.442546 0.055015
0.621951 0.488033 0.054984
0.574952 0.517629 0.054995
0.527571 0.547858 0.054997
0.482381 0.574953 0.054996
0.442226 0.606918 0.055000
0.404901 0.636185 0.055013
0.392721 0.706213 0.055016
0.387013 0.766382 0.055026
0.440779 0.837958 0.054982
0.512829 0.899700 0.054984
0.703586 0.930602 0.054998
1.000000 0.944941 0.054944
0.000000 0.046427 0.055079
0.344925 0.062478 0.054988
0.542346 0.100616 0.055022
0.613000 0.176907 0.055004
0.659797 0.260699 0.055013
0.648091 0.331304 0.054993
0.633548 0.402530 0.055028
0.592223 0.441777 0.055000
0.547867 0.472430 0.055009
0.499993 0.500013 0.055017
0.452119 0.527573 0.055009
0.407769 0.558241 0.055003
0.366449 0.597496 0.054997
0.351915 0.668761 0.054985
0.340173 0.739356 0.055018
0.387034 0.823097 0.055000
0.457604 0.899331 0.055037
0.655262 0.937513 0.055012
1.000000 0.953645 0.055054
0.000000 0.055166 0.055051
0.296506 0.069425 0.055010
0.487147 0.100282 0.055019
0.559221 0.162028 0.054979
0.613011 0.233580 0.054995
0.607270 0.293763 0.054957
0.595124 0.363837 0.055007
0.557782 0.393082 0.054991
0.517614 0.425053 0.054979
0.472436 0.452134 0.055016
0.425053 0.482382 0.054988
0.378035 0.511956 0.055006
0.337991 0.557414 0.055002
0.314310 0.634535 0.054993
0.302236 0.717819 0.054986
0.336756 0.805608 0.054998
0.411510 0.896553 0.055014
0.614044 0.944018 0.054993
1.000000 0.960692 0.054997
0.000000 0.065803 0.055021
0.247154 0.077834 0.055071
0.418451 0.101969 0.055034
0.491151 0.147518 0.055007
0.546583 0.202102 0.054988
0.557794 0.252741 0.055003
0.555896 0.308306 0.055000
0.524666 0.341827 0.055000
0.488031 0.378048 0.054994
0.441756 0.407765 0.054996
0.393098 0.442228 0.054984
0.341809 0.475339 0.054990
0.304886 0.535644 0.055019
0.277298 0.608772 0.055001
0.271493 0.702780 0.055007
0.294038 0.796318 0.054981
0.374655 0.893451 0.055013
0.572985 0.950080 0.055003
1.000000 0.966447 0.055029
0.000000 0.078434 0.055042
0.197623 0.088379 0.055074
0.347848 0.108337 0.055035
0.428341 0.147990 0.055005
0.481567 0.196170 0.055004
0.490667 0.239497 0.055012
0.489371 0.279128 0.054966
0.464402 0.304909 0.055023
0.442563 0.337979 0.055006
0.402485 0.366443 0.055009
0.363833 0.404892 0.055009
0.308281 0.444114 0.054969
0.279139 0.510609 0.055034
0.240289 0.591947 0.055008
0.244817 0.691537 0.054985
0.257644 0.793461 0.055007
0.342816 0.892428 0.055010
0.535635 0.955847 0.055032
1.000000 0.971072 0.055000
0.000000 0.094420 0.054983
0.153572 0.104307 0.054944
0.267237 0.119506 0.054935
0.333885 0.145449 0.054948
0.379929 0.173399 0.054963
0.400946 0.204625 0.054983
0.407960 0.240279 0.054981
0.391247 0.277292 0.054993
0.365462 0.314288 0.054991
0.331268 0.351907 0.055006
0.293792 0.392728 0.054967
0.252731 0.442215 0.054989
0.239469 0.509319 0.055030
0.204630 0.599065 0.054968
0.215370 0.700094 0.055019
0.228977 0.801306 0.055002
0.315632 0.897736 0.054985
0.510696 0.962557 0.055037
1.000000 0.975349 0.055024
0.000000 0.117525 0.054979
0.079030 0.125819 0.055034
0.160345 0.133839 0.055031
0.228731 0.153287 0.054998
0.280159 0.183623 0.055001
0.299910 0.215359 0.055016
0.308467 0.244821 0.055024
0.297193 0.271497 0.055004
0.282154 0.302226 0.055019
0.260673 0.340142 0.055050
0.233628 0.386978 0.054989
0.202089 0.453405 0.055004
0.196157 0.518437 0.054994
0.173392 0.620096 0.054994
0.183601 0.719841 0.054986
0.210688 0.820808 0.055007
0.292263 0.910488 0.055014
0.492378 0.969560 0.055038
1.000000 0.979602 0.055009
0.000000 0.159163 0.054984
0.069231 0.174778 0.054945
0.115635 0.190593 0.054949
0.151092 0.199284 0.055003
0.179210 0.210691 0.054977
0.198666 0.229026 0.055011
0.206493 0.257674 0.055002
0.203678 0.294018 0.055009
0.194402 0.336752 0.055013
0.176894 0.387050 0.055000
0.162049 0.440789 0.054988
0.147519 0.508878 0.054994
0.147995 0.571653 0.055043
0.145438 0.666096 0.054911
0.153260 0.771264 0.055007
0.199242 0.848903 0.054989
0.266192 0.926696 0.055069
0.487502 0.977517 0.054994
1.000000 0.984566 0.055043
0.000000 0.200043 0.054975
0.031515 0.215698 0.055009
0.053531 0.240427 0.055093
0.073312 0.266111 0.055043
0.089467 0.292286 0.055038
0.102224 0.315640 0.054995
0.107545 0.342833 0.055045
0.106536 0.374676 0.055009
0.103472 0.411461 0.054995
0.100686 0.457553 0.055039
0.100305 0.512854 0.054992
0.101988 0.581516 0.054991
0.108340 0.652132 0.055043
0.119460 0.732788 0.054900
0.133789 0.839524 0.055058
0.190600 0.884384 0.054935
0.240489 0.946449 0.055084
0.487735 0.985385 0.054980
1.000000 0.989952 0.055099
0.000000 0.503544 0.054987
0.006909 0.500263 0.054973
0.014608 0.487989 0.055018
0.022495 0.487368 0.055027
0.030437 0.492416 0.055039
0.037435 0.510736 0.055039
0.044153 0.535515 0.055027
0.049917 0.572935 0.054969
0.055987 0.613947 0.054972
0.062497 0.655150 0.055060
0.069423 0.703536 0.055005
0.077826 0.752858 0.055018
0.088353 0.802311 0.055053
0.104257 0.846584 0.054932
0.125829 0.920953 0.054996
0.174786 0.930732 0.054977
0.215698 0.968487 0.054971
0.500187 0.993093 0.054980
1.000000 0.995277 0.054990
0.000000 1.000000 0.054872
0.004730 1.000000 0.054922
0.010063 1.000000 0.055051
0.015456 1.000000 0.055103
0.020419 1.000000 0.055097
0.024693 1.000000 0.055036
0.028987 1.000000 0.054900
0.033618 1.000000 0.054958
0.039370 1.000000 0.054977
0.046418 1.000000 0.055030
0.055166 1.000000 0.054914
0.065804 1.000000 0.054910
0.078383 1.000000 0.054927
0.094416 1.000000 0.055159
0.117661 1.000000 0.054939
0.159126 1.000000 0.055069
0.200117 1.000000 0.054950
0.503546 1.000000 0.054995
1.000000 1.000000 0.054922
0.000000 0.000000 0.109971
0.496235 0.000000 0.109986
0.800236 0.000000 0.110060
0.840932 0.000000 0.109685
0.882489 0.000000 0.110058
0.905470 0.000000 0.109794
0.921376 0.000000 0.110088
0.934049 0.000000 0.110103
0.944765 0.000000 0.110020
0.953533 0.000000 0.109963
0.960656 0.000000 0.110073
0.966353 0.000000 0.110007
0.970964 0.000000 0.109964
0.975258 0.000000 0.110021
0.979525 0.000000 0.110020
0.984499 0.000000 0.110044
0.989886 0.000000 0.110022