# vtk DataFile Version 2.0
Mesh for Fierro
ASCII
DATASET UNSTRUCTURED_GRID

POINTS 404 float
0.00000000                0.00000000                0.00000000                
0.01000000                0.00000000                0.00000000                
0.02000000                0.00000000                0.00000000                
0.03000000                0.00000000                0.00000000                
0.04000000                0.00000000                0.00000000                
0.05000000                0.00000000                0.00000000                
0.06000000                0.00000000                0.00000000                
0.07000000                0.00000000                0.00000000                
0.08000000                0.00000000                0.00000000                
0.09000000                0.00000000                0.00000000                
0.10000000                0.00000000                0.00000000                
0.11000000                0.00000000                0.00000000                
0.12000000                0.00000000                0.00000000                
0.13000000                0.00000000                0.00000000                
0.14000000                0.00000000                0.00000000                
0.15000000                0.00000000                0.00000000                
0.16000000                0.00000000                0.00000000                
0.17000000                0.00000000                0.00000000                
0.18000000                0.00000000                0.00000000                
0.19000000                0.00000000                0.00000000                
0.20000000                0.00000000                0.00000000                
0.21000000                0.00000000                0.00000000                
0.22000000                0.00000000                0.00000000                
0.23000000                0.00000000                0.00000000                
0.24000001                0.00000000                0.00000000                
0.25000005                0.00000000                0.00000000                
0.26000028                0.00000000                0.00000000                
0.27000148                0.00000000                0.00000000                
0.28000694                0.00000000                0.00000000                
0.29002817                0.00000000                0.00000000                
0.30009731                0.00000000                0.00000000                
0.31028121                0.00000000                0.00000000                
0.32067809                0.00000000                0.00000000                
0.33138981                0.00000000                0.00000000                
0.34250219                0.00000000                0.00000000                
0.35409115                0.00000000                0.00000000                
0.36623592                0.00000000                0.00000000                
0.37902551                0.00000000                0.00000000                
0.39255812                0.00000000                0.00000000                
0.40693863                0.00000000                0.00000000                
0.42228583                0.00000000                0.00000000                
0.43873152                0.00000000                0.00000000                
0.45641823                0.00000000                0.00000000                
0.47548280                0.00000000                0.00000000                
0.49602306                0.00000000                0.00000000                
0.51804559                0.00000000                0.00000000                
0.54136068                0.00000000                0.00000000                
0.56533343                0.00000000                0.00000000                
0.58900785                0.00000000                0.00000000                
0.61288286                0.00000000                0.00000000                
0.63768836                0.00000000                0.00000000                
0.64235979                0.00000000                0.00000000                
0.64703536                0.00000000                0.00000000                
0.65174451                0.00000000                0.00000000                
0.65645829                0.00000000                0.00000000                
0.66119417                0.00000000                0.00000000                
0.66592157                0.00000000                0.00000000                
0.67065538                0.00000000                0.00000000                
0.67538547                0.00000000                0.00000000                
0.68010355                0.00000000                0.00000000                
0.68483436                0.00000000                0.00000000                
0.68953471                0.00000000                0.00000000                
0.69426825                0.00000000                0.00000000                
0.69895455                0.00000000                0.00000000                
0.70369641                0.00000000                0.00000000                
0.70837203                0.00000000                0.00000000                
0.71313263                0.00000000                0.00000000                
0.71779813                0.00000000                0.00000000                
0.72258668                0.00000000                0.00000000                
0.72723297                0.00000000                0.00000000                
0.73205718                0.00000000                0.00000000                
0.73666551                0.00000000                0.00000000                
0.74153354                0.00000000                0.00000000                
0.74606693                0.00000000                0.00000000                
0.75102093                0.00000000                0.00000000                
0.75538097                0.00000000                0.00000000                
0.76107536                0.00000000                0.00000000                
0.77007680                0.00000000                0.00000000                
0.78000247                0.00000000                0.00000000                
0.79000006                0.00000000                0.00000000                
0.80000000                0.00000000                0.00000000                
0.81000000                0.00000000                0.00000000                
0.82000000                0.00000000                0.00000000                
0.83000000                0.00000000                0.00000000                
0.84000000                0.00000000                0.00000000                
0.85000000                0.00000000                0.00000000                
0.86000000                0.00000000                0.00000000                
0.87000000                0.00000000                0.00000000                
0.88000000                0.00000000                0.00000000                
0.89000000                0.00000000                0.00000000                
0.90000000                0.00000000                0.00000000                
0.91000000                0.00000000                0.00000000                
0.92000000                0.00000000                0.00000000                
0.93000000                0.00000000                0.00000000                
0.94000000                0.00000000                0.00000000                
0.95000000                0.00000000                0.00000000                
0.96000000                0.00000000                0.00000000                
0.97000000                0.00000000                0.00000000                
0.98000000                0.00000000                0.00000000                
0.99000000                0.00000000                0.00000000                
1.00000000                0.00000000                0.00000000                
0.00000000                0.01000000                0.00000000                
0.01000000                0.01000000                0.00000000                
0.02000000                0.01000000                0.00000000                
0.03000000                0.01000000                0.00000000                
0.04000000                0.01000000                0.00000000                
0.05000000                0.01000000                0.00000000                
0.06000000                0.01000000                0.00000000                
0.07000000                0.01000000                0.00000000                
0.08000000                0.01000000                0.00000000                
0.09000000                0.01000000                0.00000000                
0.10000000                0.01000000                0.00000000                
0.11000000                0.01000000                0.00000000                
0.12000000                0.01000000                0.00000000                
0.13000000                0.01000000                0.00000000                
0.14000000                0.01000000                0.00000000                
0.15000000                0.01000000                0.00000000                
0.16000000                0.01000000                0.00000000                
0.17000000                0.01000000                0.00000000                
0.18000000                0.01000000                0.00000000                
0.19000000                0.01000000                0.00000000                
0.20000000                0.01000000                0.00000000                
0.21000000                0.01000000                0.00000000                
0.22000000                0.01000000                0.00000000                
0.23000000                0.01000000                0.00000000                
[...]
POINT_DATA 404
VECTORS velocity float
0.00000000                0.00000000                0.00000000                
0.00000000                0.00000000                0.00000000                
0.00000000                0.00000000                0.00000000                
0.00000000                0.00000000                0.00000000                
0.00000000                0.00000000                0.00000000                
0.00000000                0.00000000                0.00000000                
0.00000000                0.00000000                0.00000000                
0.00000000                0.00000000                0.00000000                
0.00000000                0.00000000                0.00000000                
0.00000000                0.00000000                0.00000000                
0.00000000                0.00000000                0.00000000                
0.00000000                0.00000000                0.00000000                
0.00000000                0.00000000                0.00000000                
0.00000000                0.00000000                0.00000000                
0.00000000                0.00000000                0.00000000                
0.00000000                0.00000000                0.00000000                
0.00000000                0.00000000                0.00000000                
0.00000000                0.00000000                0.00000000                
0.00000000                0.00000000                0.00000000                
0.00000000                0.00000000                0.00000000                
0.00000000                0.00000000                0.00000000                
0.00000000                0.00000000                0.00000000                
0.00000003                0.00000000                0.00000000                
0.00000027                0.00000000                0.00000000                
0.00000184                0.00000000                0.00000000                
0.00001141                0.00000000                0.00000000                
0.00006315                0.00000000                0.00000000                
0.00030757                0.00000000                0.00000000                
0.00129743                0.00000000                0.00000000                
0.00463770                0.00000000                0.00000000                
0.01367394                0.00000000                0.00000000                
0.03254734                0.00000000                0.00000000                
0.06284289                0.00000000                0.00000000                
0.10239912                0.00000000                0.00000000                
0.14848776                0.00000000                0.00000000                
0.19990818                0.00000000                0.00000000                
0.25644379                0.00000000                0.00000000                
0.31790650                0.00000000                0.00000000                
0.38372274                0.00000000                0.00000000                
0.45300435                0.00000000                0.00000000                
0.52611851                0.00000000                0.00000000                
0.60236434                0.00000000                0.00000000                
0.68060226                0.00000000                0.00000000                
0.75824845                0.00000000                0.00000000                
0.83141786                0.00000000                0.00000000                
0.89432986                0.00000000                0.00000000                
0.93644499                0.00000000                0.00000000                
0.93895647                0.00000000                0.00000000                
0.92279235                0.00000000                0.00000000                
0.93476422                0.00000000                0.00000000                
0.92806061                0.00000000                0.00000000                
0.92713162                0.00000000                0.00000000                
0.92917611                0.00000000                0.00000000                
0.92599741                0.00000000                0.00000000                
0.93187413                0.00000000                0.00000000                
0.92564743                0.00000000                0.00000000                
0.93583017                0.00000000                0.00000000                
0.92607237                0.00000000                0.00000000                
0.93965842                0.00000000                0.00000000                
0.92748587                0.00000000                0.00000000                
0.94185642                0.00000000                0.00000000                
0.92920728                0.00000000                0.00000000                
0.94183858                0.00000000                0.00000000                
0.92976860                0.00000000                0.00000000                
0.93970790                0.00000000                0.00000000                
0.92920706                0.00000000                0.00000000                
0.93484825                0.00000000                0.00000000                
0.92919766                0.00000000                0.00000000                
0.92728112                0.00000000                0.00000000                
0.93315341                0.00000000                0.00000000                
0.91607911                0.00000000                0.00000000                
0.94587905                0.00000000                0.00000000                
0.89849407                0.00000000                0.00000000                
0.97605390                0.00000000                0.00000000                
0.85631753                0.00000000                0.00000000                
1.05542725                0.00000000                0.00000000                
0.40174969                0.00000000                0.00000000                
0.04085501                0.00000000                0.00000000                
0.00152918                0.00000000                0.00000000                
0.00003915                0.00000000                0.00000000                
0.00000098                0.00000000                0.00000000                
0.00000002                0.00000000                0.00000000                
0.00000000                0.00000000                0.00000000                
0.00000000                0.00000000                0.00000000                
0.00000000                0.00000000                0.00000000                
0.00000000                0.00000000                0.00000000                
0.00000000                0.00000000                0.00000000                
0.00000000                0.00000000                0.00000000                
0.00000000                0.00000000                0.00000000                
0.00000000                0.00000000                0.00000000                
0.00000000                0.00000000                0.00000000                
0.00000000                0.00000000                0.00000000                
0.00000000                0.00000000                0.00000000                
0.00000000                0.00000000                0.00000000                
0.00000000                0.00000000                0.00000000                
0.00000000                0.00000000                0.00000000                
0.00000000                0.00000000                0.00000000                
0.00000000                0.00000000                0.00000000                
0.00000000                0.00000000                0.00000000                
0.00000000                0.00000000                0.00000000                
0.00000000                0.00000000                0.00000000                
0.00000000                0.00000000                0.00000000                
0.00000000                0.00000000                0.00000000                
0.00000000                0.00000000                0.00000000                
0.00000000                0.00000000                0.00000000                
0.00000000                0.00000000                0.00000000                
0.00000000                0.00000000                0.00000000                
0.00000000                0.00000000                0.00000000                
0.00000000                0.00000000                0.00000000                
0.00000000                0.00000000                0.00000000                
0.00000000                0.00000000                0.00000000                
0.00000000                0.00000000                0.00000000                
0.00000000                0.00000000                0.00000000                
0.00000000                0.00000000                0.00000000                
0.00000000                0.00000000                0.00000000                
0.00000000                0.00000000                0.00000000                
0.00000000                0.00000000                0.00000000                
0.00000000                0.00000000                0.00000000                
0.00000000                0.00000000                0.00000000                
0.00000000                0.00000000                0.00000000                
0.00000000                0.00000000                0.00000000                
0.00000000                0.00000000                0.00000000                
0.00000000                0.00000000                0.00000000                
0.00000003                0.00000000                0.00000000                
0.00000027                0.00000000                0.00000000                
0.00000184                0.00000000                0.00000000                
0.00001141                0.00000000                0.00000000                
0.00006315                0.00000000                0.00000000                
0.00030757                0.00000000                0.00000000                
0.00129743                0.00000000                0.00000000                
0.00463770                0.00000000                0.00000000                
0.01367394                0.00000000                0.00000000                
0.03254734                0.00000000                0.00000000                
0.06284289                0.00000000                0.00000000                
0.10239912                0.00000000                0.00000000                
0.14848776                0.00000000                0.00000000                
0.19990818                0.00000000                0.00000000                
0.25644379                0.00000000                0.00000000                
0.31790650                0.00000000                0.00000000                
0.38372274                0.00000000                0.00000000                
0.45300435                0.00000000                0.00000000                
0.52611851                0.00000000                0.00000000                
0.60236434                0.00000000                0.00000000                
0.68060226                0.00000000                0.00000000                
0.75824845                0.00000000                0.00000000                
0.83141786                0.00000000                0.00000000                
0.89432986                0.00000000                0.00000000                
0.93644499                0.00000000                0.00000000                
0.93895647                0.00000000                0.00000000                
0.92279235                0.00000000                0.00000000                
0.93476422                0.00000000                0.00000000                
0.92806061                0.00000000                0.00000000                
0.92713162                0.00000000                0.00000000                
0.92917611                0.00000000                0.00000000                
0.92599741                0.00000000                0.00000000                
0.93187413                0.00000000                0.00000000                
0.92564743                0.00000000                0.00000000                
0.93583017                0.00000000                0.00000000                
0.92607237                0.00000000                0.00000000                
0.93965842                0.00000000                0.00000000                
0.92748587                0.00000000                0.00000000                
0.94185642                0.00000000                0.00000000                
0.92920728                0.00000000                0.00000000                
0.94183858                0.00000000                0.00000000                
0.92976860                0.00000000                0.00000000                
0.93970790                0.00000000                0.00000000                
0.92920706                0.00000000                0.00000000                
0.93484825                0.00000000                0.00000000                
0.92919766                0.00000000                0.00000000                
0.92728112                0.00000000                0.00000000                
0.93315341                0.00000000                0.00000000                
0.91607911                0.00000000                0.00000000                
0.94587905                0.00000000                0.00000000                
0.89849407                0.00000000                0.00000000                
0.97605390                0.00000000                0.00000000                
0.85631753                0.00000000                0.00000000                
1.05542725                0.00000000                0.00000000                
0.40174969                0.00000000                0.00000000                
0.04085501                0.00000000                0.00000000                
0.00152918                0.00000000                0.00000000                
0.00003915                0.00000000                0.00000000                
0.00000098                0.00000000                0.00000000                
0.00000002                0.00000000                0.00000000                
0.00000000                0.00000000                0.00000000                
0.00000000                0.00000000                0.00000000                
0.00000000                0.00000000                0.00000000                
0.00000000                0.00000000                0.00000000                
0.00000000                0.00000000                0.00000000                
0.00000000                0.00000000                0.00000000                
0.00000000                0.00000000                0.00000000                
0.00000000                0.00000000                0.00000000                
0.00000000                0.00000000                0.00000000                
0.00000000                0.00000000                0.00000000                
0.00000000                0.00000000                0.00000000                
0.00000000                0.00000000                0.00000000                
0.00000000                0.00000000                0.00000000                
0.00000000                0.00000000                0.00000000                
0.00000000                0.00000000                0.00000000                
0.00000000                0.00000000                0.00000000                
0.00000000                0.00000000                0.00000000                
0.00000000                0.00000000                0.00000000                
0.00000000                0.00000000                0.00000000                
0.00000000                0.00000000                0.00000000                
0.00000000                0.00000000                0.00000000                
0.00000000                0.00000000                0.00000000                
0.00000000                0.00000000                0.00000000                
0.00000000                0.00000000                0.00000000                
0.00000000                0.00000000                0.00000000                
0.00000000                0.00000000                0.00000000                
0.00000000                0.00000000                0.00000000                
0.00000000                0.00000000                0.00000000                
0.00000000                0.00000000                0.00000000                
0.00000000                0.00000000                0.00000000                
0.00000000                0.00000000                0.00000000                
0.00000000                0.00000000                0.00000000                
0.00000000                0.00000000                0.00000000                
0.00000000                0.00000000                0.00000000                
0.00000000                0.00000000                0.00000000                
0.00000000                0.00000000                0.00000000                
0.00000000                0.00000000                0.00000000                
0.00000000                0.00000000                0.00000000                
0.00000000                0.00000000                0.00000000                
0.00000000                0.00000000                0.00000000                
0.00000000                0.00000000                0.00000000                
0.00000003                0.00000000                0.00000000                
0.00000027                0.00000000                0.00000000                
0.00000184                0.00000000                0.00000000                
0.00001141                0.00000000                0.00000000                
0.00006315                0.00000000                0.00000000                
0.00030757                0.00000000                0.00000000                
0.00129743                0.00000000                0.00000000                
0.00463770                0.00000000                0.00000000                
0.01367394                0.00000000                0.00000000                
0.03254734                0.00000000                0.00000000                
0.06284289                0.00000000                0.00000000                
0.10239912                0.00000000                0.00000000                
0.14848776                0.00000000                0.00000000                
0.19990818                0.00000000                0.00000000                
0.25644379                0.00000000                0.00000000                
0.31790650                0.00000000                0.00000000                
0.38372274                0.00000000                0.00000000                
0.45300435                0.00000000                0.00000000                
0.52611851                0.00000000                0.00000000                
0.60236434                0.00000000                0.00000000                
0.68060226                0.00000000                0.00000000                
0.75824845                0.00000000                0.00000000                
0.83141786                0.00000000                0.00000000                
0.89432986                0.00000000                0.00000000                
0.93644499                0.00000000                0.00000000                
0.93895647                0.00000000                0.00000000                
0.92279235                0.00000000                0.00000000                
0.93476422                0.00000000                0.00000000                